LAMMPS Data File for updated particles
7860 atoms

1 atom types
-1.0 1.0 xlo xhi
-1.0 1.0  ylo yhi
-0.5 0.5 zlo zhi

Atoms

1 1 1 1 -0.484523 -0.0961565 0 0 0 0
2 1 1 1 -0.482451 -0.0863744 0 0 0 0
3 1 1 1 -0.485689 -0.0710312 0 0 0 0
4 1 1 1 -0.491294 -0.054629 0 0 0 0
5 1 1 1 -0.491672 -0.0372239 0 0 0 0
6 1 1 1 -0.474327 -0.0172504 0 0 0 0
7 1 1 1 -0.47999 0.00606786 0 0 0 0
8 1 1 1 -0.489784 0.00808314 0 0 0 0
9 1 1 1 -0.492936 0.0175722 0 0 0 0
10 1 1 1 -0.491681 0.0274922 0 0 0 0
11 1 1 1 -0.490428 0.0374126 0 0 0 0
12 1 1 1 -0.487128 0.059809 0 0 0 0
13 1 1 1 -0.485011 0.0695815 0 0 0 0
14 1 1 1 -0.482811 0.0793353 0 0 0 0
15 1 1 1 -0.466584 -0.133411 0 0 0 0
16 1 1 1 -0.470435 -0.122948 0 0 0 0
17 1 1 1 -0.4743 -0.112445 0 0 0 0
18 1 1 1 -0.477088 -0.102842 0 0 0 0
19 1 1 1 -0.475016 -0.0930599 0 0 0 0
20 1 1 1 -0.472943 -0.0832775 0 0 0 0
21 1 1 1 -0.47573 -0.0736731 0 0 0 0
22 1 1 1 -0.478513 -0.0640683 0 0 0 0
23 1 1 1 -0.481296 -0.0544637 0 0 0 0
24 1 1 1 -0.48302 -0.0422374 0 0 0 0
25 1 1 1 -0.483004 -0.032239 0 0 0 0
26 1 1 1 -0.482992 -0.0222398 0 0 0 0
27 1 1 1 -0.483142 0.0155572 0 0 0 0
28 1 1 1 -0.481888 0.0254772 0 0 0 0
29 1 1 1 -0.480634 0.0353973 0 0 0 0
30 1 1 1 -0.47938 0.0453182 0 0 0 0
31 1 1 1 -0.477684 0.0565218 0 0 0 0
32 1 1 1 -0.475525 0.0664196 0 0 0 0
33 1 1 1 -0.473314 0.0761772 0 0 0 0
34 1 1 1 -0.475332 0.0859706 0 0 0 0
35 1 1 1 -0.477158 0.0958018 0 0 0 0
36 1 1 1 -0.474428 0.107858 0 0 0 0
37 1 1 1 -0.470855 0.117198 0 0 0 0
38 1 1 1 -0.467281 0.126536 0 0 0 0
39 1 1 1 -0.453615 -0.172143 0 0 0 0
40 1 1 1 -0.457159 -0.162794 0 0 0 0
41 1 1 1 -0.46072 -0.153451 0 0 0 0
42 1 1 1 -0.462503 -0.14254 0 0 0 0
43 1 1 1 -0.456639 -0.13444 0 0 0 0
44 1 1 1 -0.460719 -0.125313 0 0 0 0
45 1 1 1 -0.46459 -0.114834 0 0 0 0
46 1 1 1 -0.467378 -0.10523 0 0 0 0
47 1 1 1 -0.465306 -0.0954479 0 0 0 0
48 1 1 1 -0.463233 -0.0856663 0 0 0 0
49 1 1 1 -0.46602 -0.0760633 0 0 0 0
50 1 1 1 -0.468805 -0.06646 0 0 0 0
51 1 1 1 -0.471588 -0.0568554 0 0 0 0
52 1 1 1 -0.47437 -0.0472513 0 0 0 0
53 1 1 1 -0.474352 -0.0372519 0 0 0 0
54 1 1 1 -0.474339 -0.0272496 0 0 0 0
55 1 1 1 -0.473924 0.0194311 0 0 0 0
56 1 1 1 -0.47267 0.0293514 0 0 0 0
57 1 1 1 -0.471417 0.0392721 0 0 0 0
58 1 1 1 -0.470207 0.0492997 0 0 0 0
59 1 1 1 -0.468183 0.0596335 0 0 0 0
60 1 1 1 -0.465976 0.0693851 0 0 0 0
61 1 1 1 -0.463755 0.0791343 0 0 0 0
62 1 1 1 -0.46578 0.0889264 0 0 0 0
63 1 1 1 -0.468127 0.100094 0 0 0 0
64 1 1 1 -0.464554 0.109433 0 0 0 0
65 1 1 1 -0.460981 0.118772 0 0 0 0
66 1 1 1 -0.457407 0.12811 0 0 0 0
67 1 1 1 -0.474769 0.133163 0 0 0 0
68 1 1 1 -0.461451 0.14767 0 0 0 0
69 1 1 1 -0.4579 0.157018 0 0 0 0
70 1 1 1 -0.454343 0.166362 0 0 0 0
71 1 1 1 -0.448298 -0.19133 0 0 0 0
72 1 1 1 -0.450055 -0.181487 0 0 0 0
73 1 1 1 -0.443743 -0.173732 0 0 0 0
74 1 1 1 -0.447286 -0.164382 0 0 0 0
75 1 1 1 -0.450848 -0.155038 0 0 0 0
76 1 1 1 -0.448762 -0.14526 0 0 0 0
77 1 1 1 -0.446695 -0.135477 0 0 0 0
78 1 1 1 -0.450773 -0.126342 0 0 0 0
79 1 1 1 -0.454856 -0.117214 0 0 0 0
80 1 1 1 -0.457669 -0.107619 0 0 0 0
81 1 1 1 -0.455597 -0.0978369 0 0 0 0
82 1 1 1 -0.453523 -0.0880551 0 0 0 0
83 1 1 1 -0.456309 -0.0784523 0 0 0 0
84 1 1 1 -0.459096 -0.0688501 0 0 0 0
85 1 1 1 -0.461881 -0.0592474 0 0 0 0
86 1 1 1 -0.464661 -0.0496434 0 0 0 0
87 1 1 1 -0.464643 -0.0396448 0 0 0 0
88 1 1 1 -0.464632 -0.0296464 0 0 0 0
89 1 1 1 -0.464613 0.0230783 0 0 0 0
90 1 1 1 -0.46336 0.0329981 0 0 0 0
91 1 1 1 -0.462108 0.0429177 0 0 0 0
92 1 1 1 -0.460853 0.0528355 0 0 0 0
93 1 1 1 -0.45863 0.0625849 0 0 0 0
94 1 1 1 -0.456422 0.0723367 0 0 0 0
95 1 1 1 -0.454201 0.0820857 0 0 0 0
96 1 1 1 -0.456227 0.0918775 0 0 0 0
97 1 1 1 -0.458253 0.10167 0 0 0 0
98 1 1 1 -0.45468 0.111009 0 0 0 0
99 1 1 1 -0.451105 0.120347 0 0 0 0
100 1 1 1 -0.447532 0.129685 0 0 0 0
101 1 1 1 -0.449557 0.139477 0 0 0 0
102 1 1 1 -0.45158 0.14927 0 0 0 0
103 1 1 1 -0.448023 0.158614 0 0 0 0
104 1 1 1 -0.444474 0.167963 0 0 0 0
105 1 1 1 -0.446497 0.177754 0 0 0 0
106 1 1 1 -0.448522 0.187546 0 0 0 0
107 1 1 1 -0.434133 -0.217386 0 0 0 0
108 1 1 1 -0.439759 -0.20912 0 0 0 0
109 1 1 1 -0.442566 -0.199523 0 0 0 0
110 1 1 1 -0.438337 -0.190462 0 0 0 0
111 1 1 1 -0.436328 -0.180439 0 0 0 0
112 1 1 1 -0.43423 -0.170654 0 0 0 0
113 1 1 1 -0.437761 -0.161296 0 0 0 0
114 1 1 1 -0.441336 -0.151955 0 0 0 0
115 1 1 1 -0.439257 -0.14216 0 0 0 0
116 1 1 1 -0.437189 -0.132377 0 0 0 0
117 1 1 1 -0.441262 -0.123245 0 0 0 0
118 1 1 1 -0.445348 -0.114118 0 0 0 0
119 1 1 1 -0.448163 -0.104524 0 0 0 0
120 1 1 1 -0.446089 -0.0947421 0 0 0 0
121 1 1 1 -0.444014 -0.0849605 0 0 0 0
122 1 1 1 -0.446772 -0.0753494 0 0 0 0
123 1 1 1 -0.449588 -0.0657551 0 0 0 0
124 1 1 1 -0.452374 -0.0561525 0 0 0 0
125 1 1 1 -0.455142 -0.0465436 0 0 0 0
126 1 1 1 -0.455136 -0.0365442 0 0 0 0
127 1 1 1 -0.455127 -0.0265431 0 0 0 0
128 1 1 1 -0.455116 0.0199312 0 0 0 0
129 1 1 1 -0.453869 0.0298525 0 0 0 0
130 1 1 1 -0.452617 0.039774 0 0 0 0
131 1 1 1 -0.45136 0.0496964 0 0 0 0
132 1 1 1 -0.449137 0.0594443 0 0 0 0
133 1 1 1 -0.446929 0.0691955 0 0 0 0
134 1 1 1 -0.444708 0.0789444 0 0 0 0
135 1 1 1 -0.446735 0.0887359 0 0 0 0
136 1 1 1 -0.44876 0.0985273 0 0 0 0
137 1 1 1 -0.445188 0.107866 0 0 0 0
138 1 1 1 -0.441613 0.117204 0 0 0 0
139 1 1 1 -0.438039 0.126543 0 0 0 0
140 1 1 1 -0.440064 0.136335 0 0 0 0
141 1 1 1 -0.442089 0.146126 0 0 0 0
142 1 1 1 -0.438516 0.155465 0 0 0 0
143 1 1 1 -0.434982 0.164819 0 0 0 0
144 1 1 1 -0.437005 0.174611 0 0 0 0
145 1 1 1 -0.439029 0.184403 0 0 0 0
146 1 1 1 -0.441054 0.194195 0 0 0 0
147 1 1 1 -0.437529 0.203551 0 0 0 0
148 1 1 1 -0.43396 0.212891 0 0 0 0
149 1 1 1 -0.424753 -0.234919 0 0 0 0
150 1 1 1 -0.428499 -0.225648 0 0 0 0
151 1 1 1 -0.424163 -0.216638 0 0 0 0
152 1 1 1 -0.429788 -0.20837 0 0 0 0
153 1 1 1 -0.432604 -0.198671 0 0 0 0
154 1 1 1 -0.428906 -0.18714 0 0 0 0
155 1 1 1 -0.426815 -0.177362 0 0 0 0
156 1 1 1 -0.424725 -0.16755 0 0 0 0
157 1 1 1 -0.428173 -0.158163 0 0 0 0
158 1 1 1 -0.43183 -0.148856 0 0 0 0
159 1 1 1 -0.429751 -0.139059 0 0 0 0
160 1 1 1 -0.427669 -0.129279 0 0 0 0
161 1 1 1 -0.431753 -0.120151 0 0 0 0
162 1 1 1 -0.435839 -0.111025 0 0 0 0
163 1 1 1 -0.438656 -0.10143 0 0 0 0
164 1 1 1 -0.436581 -0.0916483 0 0 0 0
165 1 1 1 -0.434504 -0.0818669 0 0 0 0
166 1 1 1 -0.437244 -0.0722502 0 0 0 0
167 1 1 1 -0.440925 -0.0607618 0 0 0 0
168 1 1 1 -0.443714 -0.0511594 0 0 0 0
169 1 1 1 -0.446477 -0.04155 0 0 0 0
170 1 1 1 -0.446473 -0.0315516 0 0 0 0
171 1 1 1 -0.446462 -0.0215527 0 0 0 0
172 1 1 1 -0.447138 0.0138877 0 0 0 0
173 1 1 1 -0.445899 0.0238094 0 0 0 0
174 1 1 1 -0.444653 0.0337302 0 0 0 0
175 1 1 1 -0.443399 0.0436485 0 0 0 0
176 1 1 1 -0.441174 0.0533965 0 0 0 0
177 1 1 1 -0.438686 0.0630814 0 0 0 0
178 1 1 1 -0.435215 0.0758023 0 0 0 0
179 1 1 1 -0.437242 0.0855944 0 0 0 0
180 1 1 1 -0.439268 0.0953863 0 0 0 0
181 1 1 1 -0.435695 0.104726 0 0 0 0
182 1 1 1 -0.43212 0.114064 0 0 0 0
183 1 1 1 -0.428545 0.123402 0 0 0 0
184 1 1 1 -0.430572 0.133193 0 0 0 0
185 1 1 1 -0.432597 0.142985 0 0 0 0
186 1 1 1 -0.429022 0.152323 0 0 0 0
187 1 1 1 -0.425489 0.161677 0 0 0 0
188 1 1 1 -0.427513 0.171468 0 0 0 0
189 1 1 1 -0.429537 0.18126 0 0 0 0
190 1 1 1 -0.431561 0.191052 0 0 0 0
191 1 1 1 -0.428037 0.200409 0 0 0 0
192 1 1 1 -0.424467 0.209749 0 0 0 0
193 1 1 1 -0.431094 0.222469 0 0 0 0
194 1 1 1 -0.425702 0.230888 0 0 0 0
195 1 1 1 -0.42129 -0.252155 0 0 0 0
196 1 1 1 -0.418253 -0.242627 0 0 0 0
197 1 1 1 -0.414902 -0.233206 0 0 0 0
198 1 1 1 -0.414868 -0.223206 0 0 0 0
199 1 1 1 -0.414771 -0.213207 0 0 0 0
200 1 1 1 -0.420395 -0.20494 0 0 0 0
201 1 1 1 -0.423177 -0.195336 0 0 0 0
202 1 1 1 -0.418945 -0.186277 0 0 0 0
203 1 1 1 -0.416854 -0.176499 0 0 0 0
204 1 1 1 -0.414701 -0.164237 0 0 0 0
205 1 1 1 -0.418427 -0.154959 0 0 0 0
206 1 1 1 -0.422325 -0.145752 0 0 0 0
207 1 1 1 -0.420241 -0.135973 0 0 0 0
208 1 1 1 -0.418157 -0.126194 0 0 0 0
209 1 1 1 -0.422241 -0.117067 0 0 0 0
210 1 1 1 -0.426326 -0.10794 0 0 0 0
211 1 1 1 -0.429149 -0.0983371 0 0 0 0
212 1 1 1 -0.427072 -0.0885563 0 0 0 0
213 1 1 1 -0.424892 -0.0774601 0 0 0 0
214 1 1 1 -0.428105 -0.0679909 0 0 0 0
215 1 1 1 -0.431253 -0.0582265 0 0 0 0
216 1 1 1 -0.434106 -0.0483947 0 0 0 0
217 1 1 1 -0.436764 -0.0387557 0 0 0 0
218 1 1 1 -0.436873 -0.0287568 0 0 0 0
219 1 1 1 -0.436862 -0.0187576 0 0 0 0
220 1 1 1 -0.437888 0.0100894 0 0 0 0
221 1 1 1 -0.436646 0.0200103 0 0 0 0
222 1 1 1 -0.435407 0.029931 0 0 0 0
223 1 1 1 -0.433684 0.041284 0 0 0 0
224 1 1 1 -0.431394 0.0512099 0 0 0 0
225 1 1 1 -0.428888 0.0610806 0 0 0 0
226 1 1 1 -0.426526 0.0707974 0 0 0 0
227 1 1 1 -0.42775 0.0824536 0 0 0 0
228 1 1 1 -0.429776 0.0922453 0 0 0 0
229 1 1 1 -0.426203 0.101585 0 0 0 0
230 1 1 1 -0.422627 0.110924 0 0 0 0
231 1 1 1 -0.419052 0.120262 0 0 0 0
232 1 1 1 -0.421078 0.130052 0 0 0 0
233 1 1 1 -0.423105 0.139843 0 0 0 0
234 1 1 1 -0.41953 0.149181 0 0 0 0
235 1 1 1 -0.415997 0.158534 0 0 0 0
236 1 1 1 -0.418021 0.168326 0 0 0 0
237 1 1 1 -0.420045 0.178117 0 0 0 0
238 1 1 1 -0.422069 0.187909 0 0 0 0
239 1 1 1 -0.418544 0.197266 0 0 0 0
240 1 1 1 -0.414975 0.206606 0 0 0 0
241 1 1 1 -0.415696 0.21658 0 0 0 0
242 1 1 1 -0.416704 0.226528 0 0 0 0
243 1 1 1 -0.427184 0.240776 0 0 0 0
244 1 1 1 -0.422403 0.249557 0 0 0 0
245 1 1 1 -0.415018 -0.260918 0 0 0 0
246 1 1 1 -0.411305 -0.251635 0 0 0 0
247 1 1 1 -0.408266 -0.24211 0 0 0 0
248 1 1 1 -0.404916 -0.23269 0 0 0 0
249 1 1 1 -0.404882 -0.222692 0 0 0 0
250 1 1 1 -0.404786 -0.212695 0 0 0 0
251 1 1 1 -0.410223 -0.204302 0 0 0 0
252 1 1 1 -0.413208 -0.194556 0 0 0 0
253 1 1 1 -0.408978 -0.185496 0 0 0 0
254 1 1 1 -0.406887 -0.175718 0 0 0 0
255 1 1 1 -0.404763 -0.165335 0 0 0 0
256 1 1 1 -0.408484 -0.156032 0 0 0 0
257 1 1 1 -0.412383 -0.146807 0 0 0 0
258 1 1 1 -0.410296 -0.137017 0 0 0 0
259 1 1 1 -0.408207 -0.127221 0 0 0 0
260 1 1 1 -0.412294 -0.118095 0 0 0 0
261 1 1 1 -0.416378 -0.108968 0 0 0 0
262 1 1 1 -0.419207 -0.0993771 0 0 0 0
263 1 1 1 -0.417114 -0.0894637 0 0 0 0
264 1 1 1 -0.414991 -0.079381 0 0 0 0
265 1 1 1 -0.418297 -0.069944 0 0 0 0
266 1 1 1 -0.421509 -0.0604756 0 0 0 0
267 1 1 1 -0.424432 -0.050915 0 0 0 0
268 1 1 1 -0.427086 -0.0412751 0 0 0 0
269 1 1 1 -0.427198 -0.0312776 0 0 0 0
270 1 1 1 -0.427185 -0.0212789 0 0 0 0
271 1 1 1 -0.428672 0.0139773 0 0 0 0
272 1 1 1 -0.427434 0.0238997 0 0 0 0
273 1 1 1 -0.426435 0.0343445 0 0 0 0
274 1 1 1 -0.424156 0.0443103 0 0 0 0
275 1 1 1 -0.421799 0.0540283 0 0 0 0
276 1 1 1 -0.419292 0.0638942 0 0 0 0
277 1 1 1 -0.416669 0.0735438 0 0 0 0
278 1 1 1 -0.417867 0.0839712 0 0 0 0
279 1 1 1 -0.419902 0.0938198 0 0 0 0
280 1 1 1 -0.416329 0.103159 0 0 0 0
281 1 1 1 -0.412752 0.112497 0 0 0 0
282 1 1 1 -0.409173 0.121834 0 0 0 0
283 1 1 1 -0.411203 0.131625 0 0 0 0
284 1 1 1 -0.413231 0.141416 0 0 0 0
285 1 1 1 -0.409655 0.150754 0 0 0 0
286 1 1 1 -0.406122 0.160108 0 0 0 0
287 1 1 1 -0.408148 0.1699 0 0 0 0
288 1 1 1 -0.410171 0.179694 0 0 0 0
289 1 1 1 -0.412195 0.189487 0 0 0 0
290 1 1 1 -0.408671 0.198844 0 0 0 0
291 1 1 1 -0.405106 0.208212 0 0 0 0
292 1 1 1 -0.405827 0.218185 0 0 0 0
293 1 1 1 -0.406835 0.228133 0 0 0 0
294 1 1 1 -0.409752 0.237698 0 0 0 0
295 1 1 1 -0.41267 0.247262 0 0 0 0
296 1 1 1 -0.41555 0.256838 0 0 0 0
297 1 1 1 -0.402481 -0.280161 0 0 0 0
298 1 1 1 -0.406762 -0.271126 0 0 0 0
299 1 1 1 -0.405024 -0.26128 0 0 0 0
300 1 1 1 -0.401314 -0.251996 0 0 0 0
301 1 1 1 -0.39812 -0.242521 0 0 0 0
302 1 1 1 -0.394924 -0.233047 0 0 0 0
303 1 1 1 -0.394888 -0.223023 0 0 0 0
304 1 1 1 -0.394794 -0.213024 0 0 0 0
305 1 1 1 -0.399508 -0.204205 0 0 0 0
306 1 1 1 -0.403194 -0.194911 0 0 0 0
307 1 1 1 -0.398986 -0.185842 0 0 0 0
308 1 1 1 -0.396895 -0.176065 0 0 0 0
309 1 1 1 -0.39481 -0.166287 0 0 0 0
310 1 1 1 -0.398531 -0.157008 0 0 0 0
311 1 1 1 -0.402435 -0.147804 0 0 0 0
312 1 1 1 -0.400348 -0.138025 0 0 0 0
313 1 1 1 -0.398261 -0.128247 0 0 0 0
314 1 1 1 -0.402339 -0.119118 0 0 0 0
315 1 1 1 -0.406432 -0.109996 0 0 0 0
316 1 1 1 -0.409264 -0.100408 0 0 0 0
317 1 1 1 -0.407183 -0.0906293 0 0 0 0
318 1 1 1 -0.4051 -0.0808498 0 0 0 0
319 1 1 1 -0.408406 -0.0714132 0 0 0 0
320 1 1 1 -0.411619 -0.0619441 0 0 0 0
321 1 1 1 -0.414538 -0.052347 0 0 0 0
322 1 1 1 -0.417033 -0.0426476 0 0 0 0
323 1 1 1 -0.417294 -0.0326513 0 0 0 0
324 1 1 1 -0.417281 -0.022652 0 0 0 0
325 1 1 1 -0.418696 0.0149457 0 0 0 0
326 1 1 1 -0.418099 0.0274818 0 0 0 0
327 1 1 1 -0.416919 0.0374105 0 0 0 0
328 1 1 1 -0.414563 0.0471273 0 0 0 0
329 1 1 1 -0.412204 0.056842 0 0 0 0
330 1 1 1 -0.409582 0.0664894 0 0 0 0
331 1 1 1 -0.405977 0.0758142 0 0 0 0
332 1 1 1 -0.408004 0.085605 0 0 0 0
333 1 1 1 -0.41003 0.0953959 0 0 0 0
334 1 1 1 -0.406454 0.104732 0 0 0 0
335 1 1 1 -0.402875 0.114068 0 0 0 0
336 1 1 1 -0.399298 0.123406 0 0 0 0
337 1 1 1 -0.401328 0.133197 0 0 0 0
338 1 1 1 -0.403357 0.142988 0 0 0 0
339 1 1 1 -0.399779 0.152325 0 0 0 0
340 1 1 1 -0.396246 0.161679 0 0 0 0
341 1 1 1 -0.398275 0.171471 0 0 0 0
342 1 1 1 -0.400298 0.181286 0 0 0 0
343 1 1 1 -0.402326 0.191093 0 0 0 0
344 1 1 1 -0.398802 0.200451 0 0 0 0
345 1 1 1 -0.395231 0.209792 0 0 0 0
346 1 1 1 -0.395954 0.219765 0 0 0 0
347 1 1 1 -0.396966 0.229744 0 0 0 0
348 1 1 1 -0.399883 0.239308 0 0 0 0
349 1 1 1 -0.402801 0.248873 0 0 0 0
350 1 1 1 -0.405695 0.258519 0 0 0 0
351 1 1 1 -0.406918 0.268442 0 0 0 0
352 1 1 1 -0.403208 0.277727 0 0 0 0
353 1 1 1 -0.396328 -0.288042 0 0 0 0
354 1 1 1 -0.392579 -0.278772 0 0 0 0
355 1 1 1 -0.396841 -0.26972 0 0 0 0
356 1 1 1 -0.395127 -0.259852 0 0 0 0
357 1 1 1 -0.391419 -0.250565 0 0 0 0
358 1 1 1 -0.388225 -0.241089 0 0 0 0
359 1 1 1 -0.385029 -0.231614 0 0 0 0
360 1 1 1 -0.384988 -0.221612 0 0 0 0
361 1 1 1 -0.384895 -0.211613 0 0 0 0
362 1 1 1 -0.389159 -0.20225 0 0 0 0
363 1 1 1 -0.391561 -0.192543 0 0 0 0
364 1 1 1 -0.389472 -0.182764 0 0 0 0
365 1 1 1 -0.387385 -0.172984 0 0 0 0
366 1 1 1 -0.385298 -0.163206 0 0 0 0
367 1 1 1 -0.389015 -0.153924 0 0 0 0
368 1 1 1 -0.392923 -0.144721 0 0 0 0
369 1 1 1 -0.390835 -0.134943 0 0 0 0
370 1 1 1 -0.388747 -0.125164 0 0 0 0
371 1 1 1 -0.392675 -0.115969 0 0 0 0
372 1 1 1 -0.396906 -0.106909 0 0 0 0
373 1 1 1 -0.399755 -0.0973237 0 0 0 0
374 1 1 1 -0.397672 -0.0875445 0 0 0 0
375 1 1 1 -0.395588 -0.0777661 0 0 0 0
376 1 1 1 -0.398855 -0.0683176 0 0 0 0
377 1 1 1 -0.402106 -0.0588635 0 0 0 0
378 1 1 1 -0.405016 -0.0492992 0 0 0 0
379 1 1 1 -0.407504 -0.0396153 0 0 0 0
380 1 1 1 -0.407766 -0.0296205 0 0 0 0
381 1 1 1 -0.407831 -0.0193823 0 0 0 0
382 1 1 1 -0.40955 0.0109026 0 0 0 0
383 1 1 1 -0.410621 0.020844 0 0 0 0
384 1 1 1 -0.407651 0.0336587 0 0 0 0
385 1 1 1 -0.405293 0.0433815 0 0 0 0
386 1 1 1 -0.402932 0.0530985 0 0 0 0
387 1 1 1 -0.40014 0.0631344 0 0 0 0
388 1 1 1 -0.396482 0.0726749 0 0 0 0
389 1 1 1 -0.398511 0.0824658 0 0 0 0
390 1 1 1 -0.400539 0.0922566 0 0 0 0
391 1 1 1 -0.396961 0.101594 0 0 0 0
392 1 1 1 -0.39338 0.110931 0 0 0 0
393 1 1 1 -0.3898 0.120269 0 0 0 0
394 1 1 1 -0.391833 0.13006 0 0 0 0
395 1 1 1 -0.393864 0.139851 0 0 0 0
396 1 1 1 -0.390273 0.149183 0 0 0 0
397 1 1 1 -0.38675 0.158541 0 0 0 0
398 1 1 1 -0.388781 0.168331 0 0 0 0
399 1 1 1 -0.390812 0.178123 0 0 0 0
400 1 1 1 -0.392836 0.187942 0 0 0 0
401 1 1 1 -0.389073 0.19815 0 0 0 0
402 1 1 1 -0.385417 0.207573 0 0 0 0
403 1 1 1 -0.386206 0.217542 0 0 0 0
404 1 1 1 -0.387224 0.227489 0 0 0 0
405 1 1 1 -0.390142 0.237053 0 0 0 0
406 1 1 1 -0.393059 0.246617 0 0 0 0
407 1 1 1 -0.395975 0.25618 0 0 0 0
408 1 1 1 -0.396992 0.266128 0 0 0 0
409 1 1 1 -0.393464 0.275484 0 0 0 0
410 1 1 1 -0.396394 0.285045 0 0 0 0
411 1 1 1 -0.380964 -0.305534 0 0 0 0
412 1 1 1 -0.385626 -0.296622 0 0 0 0
413 1 1 1 -0.386426 -0.286654 0 0 0 0
414 1 1 1 -0.382676 -0.277385 0 0 0 0
415 1 1 1 -0.386947 -0.268271 0 0 0 0
416 1 1 1 -0.38523 -0.258419 0 0 0 0
417 1 1 1 -0.381617 -0.248594 0 0 0 0
418 1 1 1 -0.378422 -0.239119 0 0 0 0
419 1 1 1 -0.375611 -0.228257 0 0 0 0
420 1 1 1 -0.375496 -0.218257 0 0 0 0
421 1 1 1 -0.375477 -0.208258 0 0 0 0
422 1 1 1 -0.379645 -0.199168 0 0 0 0
423 1 1 1 -0.382048 -0.189461 0 0 0 0
424 1 1 1 -0.379961 -0.179682 0 0 0 0
425 1 1 1 -0.377874 -0.169903 0 0 0 0
426 1 1 1 -0.375787 -0.160124 0 0 0 0
427 1 1 1 -0.379411 -0.150805 0 0 0 0
428 1 1 1 -0.383411 -0.141641 0 0 0 0
429 1 1 1 -0.381322 -0.131863 0 0 0 0
430 1 1 1 -0.379233 -0.122085 0 0 0 0
431 1 1 1 -0.383161 -0.11289 0 0 0 0
432 1 1 1 -0.38734 -0.103807 0 0 0 0
433 1 1 1 -0.390245 -0.0942391 0 0 0 0
434 1 1 1 -0.388162 -0.0844599 0 0 0 0
435 1 1 1 -0.386874 -0.0728639 0 0 0 0
436 1 1 1 -0.390062 -0.0633866 0 0 0 0
437 1 1 1 -0.393393 -0.0539581 0 0 0 0
438 1 1 1 -0.396459 -0.0441284 0 0 0 0
439 1 1 1 -0.398945 -0.0344434 0 0 0 0
440 1 1 1 -0.399211 -0.024448 0 0 0 0
441 1 1 1 -0.398891 -0.0144545 0 0 0 0
442 1 1 1 -0.400405 0.00686013 0 0 0 0
443 1 1 1 -0.401476 0.016801 0 0 0 0
444 1 1 1 -0.400257 0.0267253 0 0 0 0
445 1 1 1 -0.39806 0.0364792 0 0 0 0
446 1 1 1 -0.395697 0.0461947 0 0 0 0
447 1 1 1 -0.390575 0.0602161 0 0 0 0
448 1 1 1 -0.386984 0.069548 0 0 0 0
449 1 1 1 -0.389016 0.0793381 0 0 0 0
450 1 1 1 -0.391044 0.0891294 0 0 0 0
451 1 1 1 -0.387464 0.0984648 0 0 0 0
452 1 1 1 -0.383883 0.1078 0 0 0 0
453 1 1 1 -0.380304 0.117136 0 0 0 0
454 1 1 1 -0.382338 0.126925 0 0 0 0
455 1 1 1 -0.384371 0.136715 0 0 0 0
456 1 1 1 -0.380778 0.146047 0 0 0 0
457 1 1 1 -0.377255 0.155404 0 0 0 0
458 1 1 1 -0.379286 0.165195 0 0 0 0
459 1 1 1 -0.381319 0.174985 0 0 0 0
460 1 1 1 -0.383351 0.184777 0 0 0 0
461 1 1 1 -0.379904 0.194162 0 0 0 0
462 1 1 1 -0.376292 0.203485 0 0 0 0
463 1 1 1 -0.377082 0.213452 0 0 0 0
464 1 1 1 -0.3781 0.223398 0 0 0 0
465 1 1 1 -0.380401 0.234797 0 0 0 0
466 1 1 1 -0.383318 0.244361 0 0 0 0
467 1 1 1 -0.386235 0.253925 0 0 0 0
468 1 1 1 -0.387224 0.263876 0 0 0 0
469 1 1 1 -0.38372 0.273241 0 0 0 0
470 1 1 1 -0.38665 0.282802 0 0 0 0
471 1 1 1 -0.387354 0.292777 0 0 0 0
472 1 1 1 -0.382211 0.301401 0 0 0 0
473 1 1 1 -0.370203 -0.315727 0 0 0 0
474 1 1 1 -0.370646 -0.305738 0 0 0 0
475 1 1 1 -0.375637 -0.297073 0 0 0 0
476 1 1 1 -0.376438 -0.287107 0 0 0 0
477 1 1 1 -0.372313 -0.278 0 0 0 0
478 1 1 1 -0.376988 -0.269161 0 0 0 0
479 1 1 1 -0.37527 -0.259311 0 0 0 0
480 1 1 1 -0.368554 -0.245071 0 0 0 0
481 1 1 1 -0.36721 -0.235164 0 0 0 0
482 1 1 1 -0.366083 -0.225231 0 0 0 0
483 1 1 1 -0.36591 -0.215236 0 0 0 0
484 1 1 1 -0.365944 -0.20524 0 0 0 0
485 1 1 1 -0.369559 -0.195919 0 0 0 0
486 1 1 1 -0.372536 -0.186376 0 0 0 0
487 1 1 1 -0.37045 -0.176599 0 0 0 0
488 1 1 1 -0.368363 -0.166821 0 0 0 0
489 1 1 1 -0.366275 -0.157044 0 0 0 0
490 1 1 1 -0.369896 -0.147724 0 0 0 0
491 1 1 1 -0.373898 -0.138561 0 0 0 0
492 1 1 1 -0.371808 -0.128783 0 0 0 0
493 1 1 1 -0.36972 -0.119004 0 0 0 0
494 1 1 1 -0.373542 -0.109763 0 0 0 0
495 1 1 1 -0.377776 -0.100706 0 0 0 0
496 1 1 1 -0.380735 -0.0911541 0 0 0 0
497 1 1 1 -0.378652 -0.0813748 0 0 0 0
498 1 1 1 -0.376965 -0.0715195 0 0 0 0
499 1 1 1 -0.38015 -0.0620418 0 0 0 0
500 1 1 1 -0.383484 -0.0526156 0 0 0 0
501 1 1 1 -0.386514 -0.0430874 0 0 0 0
502 1 1 1 -0.388893 -0.0333755 0 0 0 0
503 1 1 1 -0.390397 -0.0197305 0 0 0 0
504 1 1 1 -0.389947 -0.00974205 0 0 0 0
505 1 1 1 -0.39056 0.00511075 0 0 0 0
506 1 1 1 -0.39163 0.015053 0 0 0 0
507 1 1 1 -0.390411 0.0249779 0 0 0 0
508 1 1 1 -0.388253 0.0384209 0 0 0 0
509 1 1 1 -0.384667 0.0477534 0 0 0 0
510 1 1 1 -0.381078 0.0570849 0 0 0 0
511 1 1 1 -0.377489 0.0664158 0 0 0 0
512 1 1 1 -0.379521 0.0762037 0 0 0 0
513 1 1 1 -0.381552 0.0859925 0 0 0 0
514 1 1 1 -0.37797 0.0953286 0 0 0 0
515 1 1 1 -0.374388 0.104664 0 0 0 0
516 1 1 1 -0.370805 0.114 0 0 0 0
517 1 1 1 -0.372842 0.123791 0 0 0 0
518 1 1 1 -0.374875 0.133581 0 0 0 0
519 1 1 1 -0.371281 0.142919 0 0 0 0
520 1 1 1 -0.367712 0.15226 0 0 0 0
521 1 1 1 -0.369791 0.162058 0 0 0 0
522 1 1 1 -0.371823 0.17185 0 0 0 0
523 1 1 1 -0.373858 0.18164 0 0 0 0
524 1 1 1 -0.370412 0.191026 0 0 0 0
525 1 1 1 -0.366618 0.200473 0 0 0 0
526 1 1 1 -0.367551 0.210428 0 0 0 0
527 1 1 1 -0.368446 0.220471 0 0 0 0
528 1 1 1 -0.369284 0.230435 0 0 0 0
529 1 1 1 -0.370143 0.240398 0 0 0 0
530 1 1 1 -0.376373 0.255574 0 0 0 0
531 1 1 1 -0.377361 0.265524 0 0 0 0
532 1 1 1 -0.371895 0.273896 0 0 0 0
533 1 1 1 -0.376652 0.282688 0 0 0 0
534 1 1 1 -0.377356 0.292661 0 0 0 0
535 1 1 1 -0.372181 0.301215 0 0 0 0
536 1 1 1 -0.372263 0.311213 0 0 0 0
537 1 1 1 -0.362862 -0.325176 0 0 0 0
538 1 1 1 -0.360206 -0.315537 0 0 0 0
539 1 1 1 -0.360301 -0.305538 0 0 0 0
540 1 1 1 -0.365639 -0.297082 0 0 0 0
541 1 1 1 -0.36644 -0.287115 0 0 0 0
542 1 1 1 -0.361966 -0.278173 0 0 0 0
543 1 1 1 -0.366996 -0.269532 0 0 0 0
544 1 1 1 -0.365277 -0.259683 0 0 0 0
545 1 1 1 -0.360451 -0.250927 0 0 0 0
546 1 1 1 -0.359105 -0.24102 0 0 0 0
547 1 1 1 -0.357976 -0.231084 0 0 0 0
548 1 1 1 -0.357338 -0.220386 0 0 0 0
549 1 1 1 -0.356184 -0.207409 0 0 0 0
550 1 1 1 -0.359656 -0.197466 0 0 0 0
551 1 1 1 -0.362659 -0.187929 0 0 0 0
552 1 1 1 -0.360572 -0.17815 0 0 0 0
553 1 1 1 -0.358486 -0.168371 0 0 0 0
554 1 1 1 -0.356398 -0.158593 0 0 0 0
555 1 1 1 -0.359997 -0.149263 0 0 0 0
556 1 1 1 -0.363617 -0.139942 0 0 0 0
557 1 1 1 -0.361895 -0.130093 0 0 0 0
558 1 1 1 -0.359807 -0.120315 0 0 0 0
559 1 1 1 -0.363629 -0.111075 0 0 0 0
560 1 1 1 -0.367356 -0.101783 0 0 0 0
561 1 1 1 -0.370777 -0.0920506 0 0 0 0
562 1 1 1 -0.368671 -0.0819585 0 0 0 0
563 1 1 1 -0.366983 -0.0721026 0 0 0 0
564 1 1 1 -0.370168 -0.0626224 0 0 0 0
565 1 1 1 -0.373354 -0.0531366 0 0 0 0
566 1 1 1 -0.376532 -0.0436537 0 0 0 0
567 1 1 1 -0.378951 -0.0318889 0 0 0 0
568 1 1 1 -0.380465 -0.01859 0 0 0 0
569 1 1 1 -0.380012 -0.00860171 0 0 0 0
570 1 1 1 -0.380563 0.00489736 0 0 0 0
571 1 1 1 -0.381633 0.0148384 0 0 0 0
572 1 1 1 -0.381966 0.0306466 0 0 0 0
573 1 1 1 -0.378378 0.0399797 0 0 0 0
574 1 1 1 -0.374789 0.0493118 0 0 0 0
575 1 1 1 -0.3712 0.0586438 0 0 0 0
576 1 1 1 -0.367613 0.0679776 0 0 0 0
577 1 1 1 -0.369645 0.0777681 0 0 0 0
578 1 1 1 -0.371678 0.0875581 0 0 0 0
579 1 1 1 -0.368094 0.0968919 0 0 0 0
580 1 1 1 -0.364513 0.106227 0 0 0 0
581 1 1 1 -0.360928 0.115561 0 0 0 0
582 1 1 1 -0.362965 0.12535 0 0 0 0
583 1 1 1 -0.364998 0.13514 0 0 0 0
584 1 1 1 -0.361403 0.14447 0 0 0 0
585 1 1 1 -0.357833 0.153809 0 0 0 0
586 1 1 1 -0.359605 0.163648 0 0 0 0
587 1 1 1 -0.361939 0.173369 0 0 0 0
588 1 1 1 -0.363977 0.183157 0 0 0 0
589 1 1 1 -0.36053 0.192541 0 0 0 0
590 1 1 1 -0.358462 0.20626 0 0 0 0
591 1 1 1 -0.359398 0.216216 0 0 0 0
592 1 1 1 -0.360236 0.22618 0 0 0 0
593 1 1 1 -0.361087 0.236161 0 0 0 0
594 1 1 1 -0.361946 0.246124 0 0 0 0
595 1 1 1 -0.366387 0.255082 0 0 0 0
596 1 1 1 -0.367248 0.265044 0 0 0 0
597 1 1 1 -0.361903 0.273557 0 0 0 0
598 1 1 1 -0.366605 0.282382 0 0 0 0
599 1 1 1 -0.367363 0.292352 0 0 0 0
600 1 1 1 -0.362056 0.300826 0 0 0 0
601 1 1 1 -0.362272 0.310823 0 0 0 0
602 1 1 1 -0.364348 0.320604 0 0 0 0
603 1 1 1 -0.355654 -0.33428 0 0 0 0
604 1 1 1 -0.352875 -0.324675 0 0 0 0
605 1 1 1 -0.350219 -0.315035 0 0 0 0
606 1 1 1 -0.350144 -0.305035 0 0 0 0
607 1 1 1 -0.35565 -0.296688 0 0 0 0
608 1 1 1 -0.356448 -0.286721 0 0 0 0
609 1 1 1 -0.351975 -0.277778 0 0 0 0
610 1 1 1 -0.357005 -0.269136 0 0 0 0
611 1 1 1 -0.35501 -0.259317 0 0 0 0
612 1 1 1 -0.35047 -0.250356 0 0 0 0
613 1 1 1 -0.349132 -0.240225 0 0 0 0
614 1 1 1 -0.348038 -0.229975 0 0 0 0
615 1 1 1 -0.347419 -0.219125 0 0 0 0
616 1 1 1 -0.346308 -0.208969 0 0 0 0
617 1 1 1 -0.349897 -0.199635 0 0 0 0
618 1 1 1 -0.352897 -0.190096 0 0 0 0
619 1 1 1 -0.350763 -0.180089 0 0 0 0
620 1 1 1 -0.348668 -0.170255 0 0 0 0
621 1 1 1 -0.346577 -0.160476 0 0 0 0
622 1 1 1 -0.350119 -0.150812 0 0 0 0
623 1 1 1 -0.353735 -0.141466 0 0 0 0
624 1 1 1 -0.351935 -0.131627 0 0 0 0
625 1 1 1 -0.349923 -0.121826 0 0 0 0
626 1 1 1 -0.353569 -0.1125 0 0 0 0
627 1 1 1 -0.357393 -0.10326 0 0 0 0
628 1 1 1 -0.360956 -0.0939173 0 0 0 0
629 1 1 1 -0.358912 -0.0841287 0 0 0 0
630 1 1 1 -0.356955 -0.0740057 0 0 0 0
631 1 1 1 -0.360367 -0.0646061 0 0 0 0
632 1 1 1 -0.363554 -0.0551233 0 0 0 0
633 1 1 1 -0.366733 -0.0456435 0 0 0 0
634 1 1 1 -0.36991 -0.0361618 0 0 0 0
635 1 1 1 -0.372327 -0.0243981 0 0 0 0
636 1 1 1 -0.371368 -0.0144419 0 0 0 0
637 1 1 1 -0.371046 0.00796619 0 0 0 0
638 1 1 1 -0.37568 0.0228716 0 0 0 0
639 1 1 1 -0.372089 0.0322069 0 0 0 0
640 1 1 1 -0.3685 0.0415387 0 0 0 0
641 1 1 1 -0.364911 0.0508708 0 0 0 0
642 1 1 1 -0.361324 0.0602045 0 0 0 0
643 1 1 1 -0.357737 0.0695381 0 0 0 0
644 1 1 1 -0.359769 0.0793284 0 0 0 0
645 1 1 1 -0.361802 0.0891193 0 0 0 0
646 1 1 1 -0.358219 0.0984544 0 0 0 0
647 1 1 1 -0.354636 0.107789 0 0 0 0
648 1 1 1 -0.351052 0.117124 0 0 0 0
649 1 1 1 -0.35309 0.126914 0 0 0 0
650 1 1 1 -0.355099 0.136708 0 0 0 0
651 1 1 1 -0.351529 0.146048 0 0 0 0
652 1 1 1 -0.347978 0.155507 0 0 0 0
653 1 1 1 -0.349751 0.165348 0 0 0 0
654 1 1 1 -0.351981 0.175096 0 0 0 0
655 1 1 1 -0.354125 0.184864 0 0 0 0
656 1 1 1 -0.351319 0.196423 0 0 0 0
657 1 1 1 -0.348361 0.205973 0 0 0 0
658 1 1 1 -0.349404 0.215915 0 0 0 0
659 1 1 1 -0.349914 0.2259 0 0 0 0
660 1 1 1 -0.351094 0.235827 0 0 0 0
661 1 1 1 -0.351953 0.245787 0 0 0 0
662 1 1 1 -0.356395 0.254744 0 0 0 0
663 1 1 1 -0.357254 0.264706 0 0 0 0
664 1 1 1 -0.351912 0.273159 0 0 0 0
665 1 1 1 -0.356562 0.282011 0 0 0 0
666 1 1 1 -0.357371 0.291992 0 0 0 0
667 1 1 1 -0.351923 0.300377 0 0 0 0
668 1 1 1 -0.352284 0.31037 0 0 0 0
669 1 1 1 -0.35436 0.320152 0 0 0 0
670 1 1 1 -0.356336 0.329953 0 0 0 0
671 1 1 1 -0.347805 -0.34315 0 0 0 0
672 1 1 1 -0.345696 -0.333376 0 0 0 0
673 1 1 1 -0.342918 -0.323771 0 0 0 0
674 1 1 1 -0.340245 -0.314136 0 0 0 0
675 1 1 1 -0.339714 -0.304125 0 0 0 0
676 1 1 1 -0.345669 -0.296093 0 0 0 0
677 1 1 1 -0.346467 -0.286125 0 0 0 0
678 1 1 1 -0.341995 -0.277183 0 0 0 0
679 1 1 1 -0.347024 -0.268541 0 0 0 0
680 1 1 1 -0.345027 -0.258743 0 0 0 0
681 1 1 1 -0.340531 -0.249274 0 0 0 0
682 1 1 1 -0.338949 -0.239402 0 0 0 0
683 1 1 1 -0.337895 -0.22946 0 0 0 0
684 1 1 1 -0.337427 -0.219472 0 0 0 0
685 1 1 1 -0.336325 -0.209535 0 0 0 0
686 1 1 1 -0.339915 -0.200202 0 0 0 0
687 1 1 1 -0.342909 -0.190588 0 0 0 0
688 1 1 1 -0.34079 -0.180815 0 0 0 0
689 1 1 1 -0.3387 -0.171037 0 0 0 0
690 1 1 1 -0.336608 -0.161262 0 0 0 0
691 1 1 1 -0.338464 -0.151437 0 0 0 0
692 1 1 1 -0.343857 -0.143019 0 0 0 0
693 1 1 1 -0.342058 -0.133184 0 0 0 0
694 1 1 1 -0.340046 -0.123391 0 0 0 0
695 1 1 1 -0.343629 -0.114057 0 0 0 0
696 1 1 1 -0.347261 -0.104741 0 0 0 0
697 1 1 1 -0.351084 -0.0955034 0 0 0 0
698 1 1 1 -0.349041 -0.0857147 0 0 0 0
699 1 1 1 -0.347003 -0.075927 0 0 0 0
700 1 1 1 -0.350343 -0.0665042 0 0 0 0
701 1 1 1 -0.353754 -0.0571071 0 0 0 0
702 1 1 1 -0.356933 -0.0476291 0 0 0 0
703 1 1 1 -0.360111 -0.0381506 0 0 0 0
704 1 1 1 -0.363287 -0.0286707 0 0 0 0
705 1 1 1 -0.36233 -0.0187191 0 0 0 0
706 1 1 1 -0.36363 0.0146733 0 0 0 0
707 1 1 1 -0.365804 0.024432 0 0 0 0
708 1 1 1 -0.362212 0.0337641 0 0 0 0
709 1 1 1 -0.358623 0.043097 0 0 0 0
710 1 1 1 -0.355035 0.0524308 0 0 0 0
711 1 1 1 -0.351447 0.0617646 0 0 0 0
712 1 1 1 -0.347861 0.0710984 0 0 0 0
713 1 1 1 -0.349893 0.0808895 0 0 0 0
714 1 1 1 -0.351926 0.0906827 0 0 0 0
715 1 1 1 -0.348343 0.100018 0 0 0 0
716 1 1 1 -0.34476 0.109353 0 0 0 0
717 1 1 1 -0.341176 0.118687 0 0 0 0
718 1 1 1 -0.343215 0.128479 0 0 0 0
719 1 1 1 -0.345225 0.138286 0 0 0 0
720 1 1 1 -0.339371 0.146912 0 0 0 0
721 1 1 1 -0.33765 0.156928 0 0 0 0
722 1 1 1 -0.339836 0.166686 0 0 0 0
723 1 1 1 -0.342028 0.176442 0 0 0 0
724 1 1 1 -0.344216 0.186198 0 0 0 0
725 1 1 1 -0.341343 0.195775 0 0 0 0
726 1 1 1 -0.338385 0.205326 0 0 0 0
727 1 1 1 -0.33929 0.215283 0 0 0 0
728 1 1 1 -0.339936 0.22526 0 0 0 0
729 1 1 1 -0.340831 0.235218 0 0 0 0
730 1 1 1 -0.341975 0.245151 0 0 0 0
731 1 1 1 -0.346415 0.254113 0 0 0 0
732 1 1 1 -0.347273 0.264113 0 0 0 0
733 1 1 1 -0.341931 0.272566 0 0 0 0
734 1 1 1 -0.346408 0.281507 0 0 0 0
735 1 1 1 -0.347386 0.291465 0 0 0 0
736 1 1 1 -0.341592 0.299615 0 0 0 0
737 1 1 1 -0.342316 0.309587 0 0 0 0
738 1 1 1 -0.344392 0.319368 0 0 0 0
739 1 1 1 -0.346368 0.329169 0 0 0 0
740 1 1 1 -0.348162 0.339006 0 0 0 0
741 1 1 1 -0.339353 -0.351173 0 0 0 0
742 1 1 1 -0.337984 -0.341268 0 0 0 0
743 1 1 1 -0.335875 -0.331494 0 0 0 0
744 1 1 1 -0.333099 -0.321888 0 0 0 0
745 1 1 1 -0.330425 -0.312253 0 0 0 0
746 1 1 1 -0.329015 -0.302353 0 0 0 0
747 1 1 1 -0.335737 -0.29495 0 0 0 0
748 1 1 1 -0.335669 -0.284927 0 0 0 0
749 1 1 1 -0.332127 -0.275575 0 0 0 0
750 1 1 1 -0.334408 -0.265843 0 0 0 0
751 1 1 1 -0.333078 -0.255936 0 0 0 0
752 1 1 1 -0.33102 -0.246152 0 0 0 0
753 1 1 1 -0.32945 -0.236277 0 0 0 0
754 1 1 1 -0.328397 -0.226334 0 0 0 0
755 1 1 1 -0.327929 -0.216348 0 0 0 0
756 1 1 1 -0.326828 -0.206412 0 0 0 0
757 1 1 1 -0.330416 -0.197081 0 0 0 0
758 1 1 1 -0.333388 -0.187534 0 0 0 0
759 1 1 1 -0.331277 -0.177733 0 0 0 0
760 1 1 1 -0.329158 -0.167959 0 0 0 0
761 1 1 1 -0.327102 -0.158166 0 0 0 0
762 1 1 1 -0.328958 -0.14834 0 0 0 0
763 1 1 1 -0.334361 -0.139887 0 0 0 0
764 1 1 1 -0.332561 -0.130051 0 0 0 0
765 1 1 1 -0.330553 -0.120256 0 0 0 0
766 1 1 1 -0.333872 -0.110825 0 0 0 0
767 1 1 1 -0.337763 -0.101614 0 0 0 0
768 1 1 1 -0.341589 -0.0923772 0 0 0 0
769 1 1 1 -0.339544 -0.0825862 0 0 0 0
770 1 1 1 -0.337625 -0.071414 0 0 0 0
771 1 1 1 -0.337618 -0.0611654 0 0 0 0
772 1 1 1 -0.339084 -0.0512561 0 0 0 0
773 1 1 1 -0.344052 -0.042231 0 0 0 0
774 1 1 1 -0.348729 -0.0332953 0 0 0 0
775 1 1 1 -0.354164 -0.0244909 0 0 0 0
776 1 1 1 -0.35325 -0.0145333 0 0 0 0
777 1 1 1 -0.355458 0.0089127 0 0 0 0
778 1 1 1 -0.356264 0.0214353 0 0 0 0
779 1 1 1 -0.351357 0.0301481 0 0 0 0
780 1 1 1 -0.346383 0.0388226 0 0 0 0
781 1 1 1 -0.341404 0.0474944 0 0 0 0
782 1 1 1 -0.338969 0.0571926 0 0 0 0
783 1 1 1 -0.338468 0.0676693 0 0 0 0
784 1 1 1 -0.340397 0.0777524 0 0 0 0
785 1 1 1 -0.342432 0.0875457 0 0 0 0
786 1 1 1 -0.338847 0.0968883 0 0 0 0
787 1 1 1 -0.335233 0.106212 0 0 0 0
788 1 1 1 -0.331679 0.115559 0 0 0 0
789 1 1 1 -0.333719 0.125347 0 0 0 0
790 1 1 1 -0.334546 0.13531 0 0 0 0
791 1 1 1 -0.329776 0.144096 0 0 0 0
792 1 1 1 -0.328103 0.153953 0 0 0 0
793 1 1 1 -0.33029 0.163709 0 0 0 0
794 1 1 1 -0.332483 0.173464 0 0 0 0
795 1 1 1 -0.334669 0.183227 0 0 0 0
796 1 1 1 -0.331796 0.192806 0 0 0 0