LAMMPS Data File for updated particles
7764 atoms

1 atom types
-1.0 1.0 xlo xhi
-1.0 1.0  ylo yhi
-0.5 0.5 zlo zhi

Atoms

1 1 1 1 -0.490055 -0.0698029 0 0 0 0
2 1 1 1 -0.489853 -0.0598059 0 0 0 0
3 1 1 1 -0.489966 -0.0424062 0 0 0 0
4 1 1 1 -0.491984 -0.0326127 0 0 0 0
5 1 1 1 -0.493526 -0.022733 0 0 0 0
6 1 1 1 -0.493028 -0.0127458 0 0 0 0
7 1 1 1 -0.488128 -0.00402923 0 0 0 0
8 1 1 1 -0.489266 0.00590531 0 0 0 0
9 1 1 1 -0.493783 0.0149107 0 0 0 0
10 1 1 1 -0.494403 0.0248913 0 0 0 0
11 1 1 1 -0.49379 0.034943 0 0 0 0
12 1 1 1 -0.492317 0.0448322 0 0 0 0
13 1 1 1 -0.489533 0.0544352 0 0 0 0
14 1 1 1 -0.486859 0.0640694 0 0 0 0
15 1 1 1 -0.47444 -0.10956 0 0 0 0
16 1 1 1 -0.477629 -0.100083 0 0 0 0
17 1 1 1 -0.480916 -0.0906401 0 0 0 0
18 1 1 1 -0.484198 -0.081195 0 0 0 0
19 1 1 1 -0.480298 -0.0719881 0 0 0 0
20 1 1 1 -0.47552 -0.0632045 0 0 0 0
21 1 1 1 -0.477807 -0.0533704 0 0 0 0
22 1 1 1 -0.480037 -0.0435909 0 0 0 0
23 1 1 1 -0.482055 -0.033797 0 0 0 0
24 1 1 1 -0.483597 -0.0239175 0 0 0 0
25 1 1 1 -0.4831 -0.0139307 0 0 0 0
26 1 1 1 -0.478199 -0.0052148 0 0 0 0
27 1 1 1 -0.479282 0.00536149 0 0 0 0
28 1 1 1 -0.483804 0.01428 0 0 0 0
29 1 1 1 -0.484427 0.0242591 0 0 0 0
30 1 1 1 -0.483818 0.0342389 0 0 0 0
31 1 1 1 -0.482341 0.0441439 0 0 0 0
32 1 1 1 -0.479554 0.0537993 0 0 0 0
33 1 1 1 -0.476879 0.0634455 0 0 0 0
34 1 1 1 -0.481332 0.0724014 0 0 0 0
35 1 1 1 -0.485809 0.0813579 0 0 0 0
36 1 1 1 -0.482435 0.0907714 0 0 0 0
37 1 1 1 -0.479022 0.100171 0 0 0 0
38 1 1 1 -0.475596 0.109566 0 0 0 0
39 1 1 1 -0.465185 -0.149112 0 0 0 0
40 1 1 1 -0.468316 -0.139616 0 0 0 0
41 1 1 1 -0.471703 -0.130208 0 0 0 0
42 1 1 1 -0.469219 -0.118088 0 0 0 0
43 1 1 1 -0.464445 -0.109302 0 0 0 0
44 1 1 1 -0.467634 -0.0998271 0 0 0 0
45 1 1 1 -0.47092 -0.0903851 0 0 0 0
46 1 1 1 -0.474202 -0.0809412 0 0 0 0
47 1 1 1 -0.470303 -0.0717353 0 0 0 0
48 1 1 1 -0.465525 -0.0629538 0 0 0 0
49 1 1 1 -0.467809 -0.0532213 0 0 0 0
50 1 1 1 -0.470039 -0.0434759 0 0 0 0
51 1 1 1 -0.472057 -0.0336844 0 0 0 0
52 1 1 1 -0.473598 -0.0238062 0 0 0 0
53 1 1 1 -0.473103 -0.013821 0 0 0 0
54 1 1 1 -0.4682 -0.00511001 0 0 0 0
55 1 1 1 -0.469297 0.00482579 0 0 0 0
56 1 1 1 -0.47382 0.0137405 0 0 0 0
57 1 1 1 -0.474445 0.0237186 0 0 0 0
58 1 1 1 -0.473836 0.0336981 0 0 0 0
59 1 1 1 -0.472358 0.0435858 0 0 0 0
60 1 1 1 -0.469573 0.0531881 0 0 0 0
61 1 1 1 -0.466877 0.062817 0 0 0 0
62 1 1 1 -0.471353 0.0717782 0 0 0 0
63 1 1 1 -0.475829 0.0807493 0 0 0 0
64 1 1 1 -0.472448 0.0902883 0 0 0 0
65 1 1 1 -0.469035 0.0996878 0 0 0 0
66 1 1 1 -0.465609 0.109082 0 0 0 0
67 1 1 1 -0.470085 0.118023 0 0 0 0
68 1 1 1 -0.470705 0.128003 0 0 0 0
69 1 1 1 -0.467181 0.137489 0 0 0 0
70 1 1 1 -0.463635 0.146838 0 0 0 0
71 1 1 1 -0.458763 -0.170135 0 0 0 0
72 1 1 1 -0.460485 -0.157938 0 0 0 0
73 1 1 1 -0.455191 -0.149455 0 0 0 0
74 1 1 1 -0.458323 -0.139959 0 0 0 0
75 1 1 1 -0.46171 -0.130551 0 0 0 0
76 1 1 1 -0.458616 -0.121043 0 0 0 0
77 1 1 1 -0.454644 -0.111277 0 0 0 0
78 1 1 1 -0.457832 -0.1018 0 0 0 0
79 1 1 1 -0.461093 -0.0922644 0 0 0 0
80 1 1 1 -0.464381 -0.0828209 0 0 0 0
81 1 1 1 -0.460435 -0.0736328 0 0 0 0
82 1 1 1 -0.455531 -0.0632196 0 0 0 0
83 1 1 1 -0.457813 -0.0534716 0 0 0 0
84 1 1 1 -0.460043 -0.0437236 0 0 0 0
85 1 1 1 -0.46206 -0.0339282 0 0 0 0
86 1 1 1 -0.463601 -0.0240478 0 0 0 0
87 1 1 1 -0.462907 -0.0135927 0 0 0 0
88 1 1 1 -0.458232 -0.00433063 0 0 0 0
89 1 1 1 -0.459441 0.00650226 0 0 0 0
90 1 1 1 -0.463963 0.0154216 0 0 0 0
91 1 1 1 -0.46461 0.02551 0 0 0 0
92 1 1 1 -0.464011 0.0355435 0 0 0 0
93 1 1 1 -0.462549 0.0455233 0 0 0 0
94 1 1 1 -0.459764 0.0551264 0 0 0 0
95 1 1 1 -0.457066 0.0647534 0 0 0 0
96 1 1 1 -0.461539 0.0736947 0 0 0 0
97 1 1 1 -0.466012 0.0826361 0 0 0 0
98 1 1 1 -0.462602 0.0920338 0 0 0 0
99 1 1 1 -0.459177 0.101426 0 0 0 0
100 1 1 1 -0.455763 0.110824 0 0 0 0
101 1 1 1 -0.460239 0.119764 0 0 0 0
102 1 1 1 -0.460859 0.129743 0 0 0 0
103 1 1 1 -0.457311 0.139093 0 0 0 0
104 1 1 1 -0.453765 0.148442 0 0 0 0
105 1 1 1 -0.460089 0.156187 0 0 0 0
106 1 1 1 -0.456812 0.169861 0 0 0 0
107 1 1 1 -0.446974 -0.197389 0 0 0 0
108 1 1 1 -0.450311 -0.187964 0 0 0 0
109 1 1 1 -0.453065 -0.178351 0 0 0 0
110 1 1 1 -0.449168 -0.167323 0 0 0 0
111 1 1 1 -0.44643 -0.157707 0 0 0 0
112 1 1 1 -0.445335 -0.147769 0 0 0 0
113 1 1 1 -0.448467 -0.138274 0 0 0 0
114 1 1 1 -0.451854 -0.128866 0 0 0 0
115 1 1 1 -0.44876 -0.119359 0 0 0 0
116 1 1 1 -0.444701 -0.110221 0 0 0 0
117 1 1 1 -0.447888 -0.100742 0 0 0 0
118 1 1 1 -0.451143 -0.0912652 0 0 0 0
119 1 1 1 -0.454451 -0.0816434 0 0 0 0
120 1 1 1 -0.450109 -0.0725378 0 0 0 0
121 1 1 1 -0.445543 -0.0636409 0 0 0 0
122 1 1 1 -0.447824 -0.0539051 0 0 0 0
123 1 1 1 -0.450054 -0.0441573 0 0 0 0
124 1 1 1 -0.45207 -0.0343633 0 0 0 0
125 1 1 1 -0.453611 -0.0244836 0 0 0 0
126 1 1 1 -0.452939 -0.012814 0 0 0 0
127 1 1 1 -0.448239 -0.00398777 0 0 0 0
128 1 1 1 -0.449459 0.00593656 0 0 0 0
129 1 1 1 -0.453979 0.0148768 0 0 0 0
130 1 1 1 -0.454624 0.025033 0 0 0 0
131 1 1 1 -0.454028 0.0350145 0 0 0 0
132 1 1 1 -0.452421 0.0448833 0 0 0 0
133 1 1 1 -0.449783 0.0545283 0 0 0 0
134 1 1 1 -0.447086 0.0641559 0 0 0 0
135 1 1 1 -0.451558 0.0730985 0 0 0 0
136 1 1 1 -0.456032 0.0820403 0 0 0 0
137 1 1 1 -0.45262 0.0914391 0 0 0 0
138 1 1 1 -0.449197 0.100834 0 0 0 0
139 1 1 1 -0.44578 0.11023 0 0 0 0
140 1 1 1 -0.450258 0.11917 0 0 0 0
141 1 1 1 -0.450878 0.12915 0 0 0 0
142 1 1 1 -0.447311 0.138491 0 0 0 0
143 1 1 1 -0.443784 0.147847 0 0 0 0
144 1 1 1 -0.444643 0.157809 0 0 0 0
145 1 1 1 -0.447095 0.167503 0 0 0 0
146 1 1 1 -0.451307 0.178208 0 0 0 0
147 1 1 1 -0.449357 0.188015 0 0 0 0
148 1 1 1 -0.445629 0.197292 0 0 0 0
149 1 1 1 -0.434662 -0.216763 0 0 0 0
150 1 1 1 -0.43974 -0.204292 0 0 0 0
151 1 1 1 -0.437379 -0.194576 0 0 0 0
152 1 1 1 -0.440716 -0.18515 0 0 0 0
153 1 1 1 -0.44347 -0.175538 0 0 0 0
154 1 1 1 -0.439189 -0.166501 0 0 0 0
155 1 1 1 -0.436476 -0.156761 0 0 0 0
156 1 1 1 -0.435391 -0.146723 0 0 0 0
157 1 1 1 -0.438523 -0.137226 0 0 0 0
158 1 1 1 -0.441909 -0.127817 0 0 0 0
159 1 1 1 -0.43882 -0.118308 0 0 0 0
160 1 1 1 -0.434585 -0.10925 0 0 0 0
161 1 1 1 -0.437902 -0.099816 0 0 0 0
162 1 1 1 -0.441184 -0.09037 0 0 0 0
163 1 1 1 -0.444478 -0.0809281 0 0 0 0
164 1 1 1 -0.440022 -0.0719768 0 0 0 0
165 1 1 1 -0.435564 -0.0630259 0 0 0 0
166 1 1 1 -0.437844 -0.0532895 0 0 0 0
167 1 1 1 -0.440075 -0.043542 0 0 0 0
168 1 1 1 -0.442089 -0.0337474 0 0 0 0
169 1 1 1 -0.443631 -0.0238672 0 0 0 0
170 1 1 1 -0.442997 -0.0138763 0 0 0 0
171 1 1 1 -0.438271 -0.00477693 0 0 0 0
172 1 1 1 -0.439389 0.0054345 0 0 0 0
173 1 1 1 -0.443996 0.0143099 0 0 0 0
174 1 1 1 -0.444655 0.0242869 0 0 0 0
175 1 1 1 -0.444058 0.0342688 0 0 0 0
176 1 1 1 -0.442444 0.0442159 0 0 0 0
177 1 1 1 -0.439789 0.0539041 0 0 0 0
178 1 1 1 -0.437106 0.0635586 0 0 0 0
179 1 1 1 -0.441578 0.0725017 0 0 0 0
180 1 1 1 -0.446051 0.0814452 0 0 0 0
181 1 1 1 -0.442639 0.0908448 0 0 0 0
182 1 1 1 -0.439215 0.10024 0 0 0 0
183 1 1 1 -0.435798 0.109638 0 0 0 0
184 1 1 1 -0.440278 0.118579 0 0 0 0
185 1 1 1 -0.440862 0.128561 0 0 0 0
186 1 1 1 -0.437328 0.137915 0 0 0 0
187 1 1 1 -0.433801 0.147272 0 0 0 0
188 1 1 1 -0.434661 0.157234 0 0 0 0
189 1 1 1 -0.43704 0.166947 0 0 0 0
190 1 1 1 -0.441591 0.17585 0 0 0 0
191 1 1 1 -0.439589 0.185647 0 0 0 0
192 1 1 1 -0.43591 0.194945 0 0 0 0
193 1 1 1 -0.438736 0.204536 0 0 0 0
194 1 1 1 -0.434632 0.217038 0 0 0 0
195 1 1 1 -0.425332 -0.233098 0 0 0 0
196 1 1 1 -0.427051 -0.223248 0 0 0 0
197 1 1 1 -0.425241 -0.213414 0 0 0 0
198 1 1 1 -0.427852 -0.203763 0 0 0 0
199 1 1 1 -0.427413 -0.193775 0 0 0 0
200 1 1 1 -0.430538 -0.184276 0 0 0 0
201 1 1 1 -0.433505 -0.174728 0 0 0 0
202 1 1 1 -0.429046 -0.16578 0 0 0 0
203 1 1 1 -0.426498 -0.156111 0 0 0 0
204 1 1 1 -0.425407 -0.146173 0 0 0 0
205 1 1 1 -0.428539 -0.136678 0 0 0 0
206 1 1 1 -0.431806 -0.127228 0 0 0 0
207 1 1 1 -0.428844 -0.117678 0 0 0 0
208 1 1 1 -0.424605 -0.108624 0 0 0 0
209 1 1 1 -0.427917 -0.0991926 0 0 0 0
210 1 1 1 -0.431203 -0.0897509 0 0 0 0
211 1 1 1 -0.434497 -0.0803114 0 0 0 0
212 1 1 1 -0.430042 -0.0713615 0 0 0 0
213 1 1 1 -0.425584 -0.0624127 0 0 0 0
214 1 1 1 -0.427864 -0.0526786 0 0 0 0
215 1 1 1 -0.430094 -0.0429327 0 0 0 0
216 1 1 1 -0.432108 -0.0331397 0 0 0 0
217 1 1 1 -0.43365 -0.0232612 0 0 0 0
218 1 1 1 -0.433016 -0.0132831 0 0 0 0
219 1 1 1 -0.427801 -0.00475281 0 0 0 0
220 1 1 1 -0.429084 0.0051632 0 0 0 0
221 1 1 1 -0.434009 0.013863 0 0 0 0
222 1 1 1 -0.434669 0.0238388 0 0 0 0
223 1 1 1 -0.434071 0.0338188 0 0 0 0
224 1 1 1 -0.432459 0.043686 0 0 0 0
225 1 1 1 -0.429806 0.0533256 0 0 0 0
226 1 1 1 -0.427127 0.0629579 0 0 0 0
227 1 1 1 -0.431596 0.0719028 0 0 0 0
228 1 1 1 -0.43607 0.0808456 0 0 0 0
229 1 1 1 -0.432657 0.0902581 0 0 0 0
230 1 1 1 -0.429233 0.0996584 0 0 0 0
231 1 1 1 -0.425807 0.109053 0 0 0 0
232 1 1 1 -0.430298 0.117988 0 0 0 0
233 1 1 1 -0.430866 0.127972 0 0 0 0
234 1 1 1 -0.427346 0.137332 0 0 0 0
235 1 1 1 -0.423819 0.146698 0 0 0 0
236 1 1 1 -0.424675 0.156726 0 0 0 0
237 1 1 1 -0.427054 0.166439 0 0 0 0
238 1 1 1 -0.431605 0.175344 0 0 0 0
239 1 1 1 -0.429544 0.185129 0 0 0 0
240 1 1 1 -0.425923 0.19445 0 0 0 0
241 1 1 1 -0.426517 0.204431 0 0 0 0
242 1 1 1 -0.425011 0.214314 0 0 0 0
243 1 1 1 -0.427463 0.224008 0 0 0 0
244 1 1 1 -0.425464 0.233805 0 0 0 0
245 1 1 1 -0.420217 -0.245068 0 0 0 0
246 1 1 1 -0.415794 -0.2361 0 0 0 0
247 1 1 1 -0.41497 -0.226135 0 0 0 0
248 1 1 1 -0.415627 -0.216158 0 0 0 0
249 1 1 1 -0.418057 -0.206458 0 0 0 0
250 1 1 1 -0.417661 -0.195985 0 0 0 0
251 1 1 1 -0.42075 -0.18632 0 0 0 0
252 1 1 1 -0.423717 -0.176772 0 0 0 0
253 1 1 1 -0.419258 -0.167822 0 0 0 0
254 1 1 1 -0.416709 -0.158153 0 0 0 0
255 1 1 1 -0.415619 -0.148213 0 0 0 0
256 1 1 1 -0.418749 -0.138713 0 0 0 0
257 1 1 1 -0.421881 -0.129217 0 0 0 0
258 1 1 1 -0.41904 -0.11963 0 0 0 0
259 1 1 1 -0.414787 -0.110514 0 0 0 0
260 1 1 1 -0.41806 -0.101065 0 0 0 0
261 1 1 1 -0.42138 -0.0916269 0 0 0 0
262 1 1 1 -0.424668 -0.0821836 0 0 0 0
263 1 1 1 -0.420218 -0.0732293 0 0 0 0
264 1 1 1 -0.415619 -0.0632006 0 0 0 0
265 1 1 1 -0.417893 -0.0534628 0 0 0 0
266 1 1 1 -0.420118 -0.0435919 0 0 0 0
267 1 1 1 -0.422106 -0.0333943 0 0 0 0
268 1 1 1 -0.423654 -0.0235153 0 0 0 0
269 1 1 1 -0.423021 -0.0135359 0 0 0 0
270 1 1 1 -0.417805 -0.00500554 0 0 0 0
271 1 1 1 -0.419089 0.00491011 0 0 0 0
272 1 1 1 -0.424049 0.0147516 0 0 0 0
273 1 1 1 -0.424712 0.0247293 0 0 0 0
274 1 1 1 -0.424114 0.0347104 0 0 0 0
275 1 1 1 -0.422499 0.044578 0 0 0 0
276 1 1 1 -0.419852 0.0542833 0 0 0 0
277 1 1 1 -0.417185 0.0640001 0 0 0 0
278 1 1 1 -0.421721 0.0734754 0 0 0 0
279 1 1 1 -0.426227 0.0825998 0 0 0 0
280 1 1 1 -0.42281 0.0919955 0 0 0 0
281 1 1 1 -0.419384 0.101389 0 0 0 0
282 1 1 1 -0.415743 0.110702 0 0 0 0
283 1 1 1 -0.420435 0.11962 0 0 0 0
284 1 1 1 -0.421 0.129604 0 0 0 0
285 1 1 1 -0.417481 0.138964 0 0 0 0
286 1 1 1 -0.413952 0.148321 0 0 0 0
287 1 1 1 -0.414798 0.158282 0 0 0 0
288 1 1 1 -0.417176 0.167993 0 0 0 0
289 1 1 1 -0.421728 0.176893 0 0 0 0
290 1 1 1 -0.419645 0.186671 0 0 0 0
291 1 1 1 -0.416408 0.197616 0 0 0 0
292 1 1 1 -0.417191 0.208039 0 0 0 0
293 1 1 1 -0.415688 0.217924 0 0 0 0
294 1 1 1 -0.415442 0.22792 0 0 0 0
295 1 1 1 -0.416333 0.237879 0 0 0 0
296 1 1 1 -0.41977 0.247268 0 0 0 0
297 1 1 1 -0.409158 -0.266073 0 0 0 0
298 1 1 1 -0.412207 -0.256551 0 0 0 0
299 1 1 1 -0.410356 -0.246725 0 0 0 0
300 1 1 1 -0.405933 -0.237758 0 0 0 0
301 1 1 1 -0.40511 -0.227793 0 0 0 0
302 1 1 1 -0.405766 -0.217816 0 0 0 0
303 1 1 1 -0.407773 -0.208021 0 0 0 0
304 1 1 1 -0.407871 -0.198023 0 0 0 0
305 1 1 1 -0.410999 -0.188527 0 0 0 0
306 1 1 1 -0.413964 -0.178977 0 0 0 0
307 1 1 1 -0.409505 -0.170028 0 0 0 0
308 1 1 1 -0.406919 -0.160191 0 0 0 0
309 1 1 1 -0.40583 -0.15025 0 0 0 0
310 1 1 1 -0.40896 -0.140754 0 0 0 0
311 1 1 1 -0.412087 -0.131255 0 0 0 0
312 1 1 1 -0.409248 -0.121645 0 0 0 0
313 1 1 1 -0.405 -0.112562 0 0 0 0
314 1 1 1 -0.408156 -0.103031 0 0 0 0
315 1 1 1 -0.411428 -0.0935813 0 0 0 0
316 1 1 1 -0.414744 -0.0841478 0 0 0 0
317 1 1 1 -0.410402 -0.0751398 0 0 0 0
318 1 1 1 -0.406061 -0.0661314 0 0 0 0
319 1 1 1 -0.408319 -0.0563687 0 0 0 0
320 1 1 1 -0.410592 -0.0466305 0 0 0 0
321 1 1 1 -0.412726 -0.0368596 0 0 0 0
322 1 1 1 -0.414274 -0.0269806 0 0 0 0
323 1 1 1 -0.413466 -0.0164804 0 0 0 0
324 1 1 1 -0.408109 -0.00744751 0 0 0 0
325 1 1 1 -0.409713 0.00838376 0 0 0 0
326 1 1 1 -0.414205 0.0173173 0 0 0 0
327 1 1 1 -0.415047 0.0272814 0 0 0 0
328 1 1 1 -0.414456 0.0372889 0 0 0 0
329 1 1 1 -0.412838 0.0471563 0 0 0 0
330 1 1 1 -0.410172 0.0567929 0 0 0 0
331 1 1 1 -0.407486 0.0664238 0 0 0 0
332 1 1 1 -0.411898 0.0753952 0 0 0 0
333 1 1 1 -0.416381 0.0843301 0 0 0 0
334 1 1 1 -0.412963 0.0937244 0 0 0 0
335 1 1 1 -0.409316 0.103032 0 0 0 0
336 1 1 1 -0.405892 0.112423 0 0 0 0
337 1 1 1 -0.410573 0.121255 0 0 0 0
338 1 1 1 -0.411135 0.131236 0 0 0 0
339 1 1 1 -0.407615 0.140591 0 0 0 0
340 1 1 1 -0.403819 0.149842 0 0 0 0
341 1 1 1 -0.404818 0.159791 0 0 0 0
342 1 1 1 -0.407289 0.16948 0 0 0 0
343 1 1 1 -0.412211 0.179983 0 0 0 0
344 1 1 1 -0.410137 0.189765 0 0 0 0
345 1 1 1 -0.406517 0.199085 0 0 0 0
346 1 1 1 -0.407092 0.209068 0 0 0 0
347 1 1 1 -0.405745 0.218975 0 0 0 0
348 1 1 1 -0.405499 0.228971 0 0 0 0
349 1 1 1 -0.406379 0.238932 0 0 0 0
350 1 1 1 -0.409827 0.248318 0 0 0 0
351 1 1 1 -0.413442 0.25764 0 0 0 0
352 1 1 1 -0.409273 0.266727 0 0 0 0
353 1 1 1 -0.403605 -0.274388 0 0 0 0
354 1 1 1 -0.39918 -0.265421 0 0 0 0
355 1 1 1 -0.402229 -0.255898 0 0 0 0
356 1 1 1 -0.400379 -0.246072 0 0 0 0
357 1 1 1 -0.395955 -0.237105 0 0 0 0
358 1 1 1 -0.395132 -0.227139 0 0 0 0
359 1 1 1 -0.39579 -0.217162 0 0 0 0
360 1 1 1 -0.397528 -0.207315 0 0 0 0
361 1 1 1 -0.397896 -0.197323 0 0 0 0
362 1 1 1 -0.401026 -0.187826 0 0 0 0
363 1 1 1 -0.403754 -0.178207 0 0 0 0
364 1 1 1 -0.399547 -0.169136 0 0 0 0
365 1 1 1 -0.396944 -0.159483 0 0 0 0
366 1 1 1 -0.395855 -0.149545 0 0 0 0
367 1 1 1 -0.398987 -0.14005 0 0 0 0
368 1 1 1 -0.401785 -0.130451 0 0 0 0
369 1 1 1 -0.39929 -0.120769 0 0 0 0
370 1 1 1 -0.394971 -0.111752 0 0 0 0
371 1 1 1 -0.398078 -0.102247 0 0 0 0
372 1 1 1 -0.401292 -0.0927781 0 0 0 0
373 1 1 1 -0.404772 -0.0834038 0 0 0 0
374 1 1 1 -0.400431 -0.0743969 0 0 0 0
375 1 1 1 -0.396091 -0.0653906 0 0 0 0
376 1 1 1 -0.398346 -0.0556503 0 0 0 0
377 1 1 1 -0.400619 -0.045915 0 0 0 0
378 1 1 1 -0.402753 -0.0361484 0 0 0 0
379 1 1 1 -0.404282 -0.0262682 0 0 0 0
380 1 1 1 -0.40347 -0.0163037 0 0 0 0
381 1 1 1 -0.398732 -0.00397487 0 0 0 0
382 1 1 1 -0.399736 0.00771649 0 0 0 0
383 1 1 1 -0.404148 0.0166905 0 0 0 0
384 1 1 1 -0.405071 0.0266471 0 0 0 0
385 1 1 1 -0.40448 0.0366282 0 0 0 0
386 1 1 1 -0.402861 0.0464955 0 0 0 0
387 1 1 1 -0.400194 0.0561325 0 0 0 0
388 1 1 1 -0.397512 0.065765 0 0 0 0
389 1 1 1 -0.401921 0.0747386 0 0 0 0
390 1 1 1 -0.406341 0.0837084 0 0 0 0
391 1 1 1 -0.402979 0.0931578 0 0 0 0
392 1 1 1 -0.399323 0.10266 0 0 0 0
393 1 1 1 -0.395901 0.112057 0 0 0 0
394 1 1 1 -0.400581 0.120893 0 0 0 0
395 1 1 1 -0.400464 0.130892 0 0 0 0
396 1 1 1 -0.397618 0.140478 0 0 0 0
397 1 1 1 -0.393809 0.149722 0 0 0 0
398 1 1 1 -0.394745 0.159677 0 0 0 0
399 1 1 1 -0.397293 0.169346 0 0 0 0
400 1 1 1 -0.402339 0.178167 0 0 0 0
401 1 1 1 -0.400259 0.188215 0 0 0 0
402 1 1 1 -0.396639 0.197536 0 0 0 0
403 1 1 1 -0.396539 0.207535 0 0 0 0
404 1 1 1 -0.395854 0.217512 0 0 0 0
405 1 1 1 -0.395589 0.227646 0 0 0 0
406 1 1 1 -0.395547 0.237645 0 0 0 0
407 1 1 1 -0.399975 0.246611 0 0 0 0
408 1 1 1 -0.401936 0.256421 0 0 0 0
409 1 1 1 -0.399295 0.266066 0 0 0 0
410 1 1 1 -0.403712 0.275037 0 0 0 0
411 1 1 1 -0.385058 -0.295804 0 0 0 0
412 1 1 1 -0.394013 -0.283728 0 0 0 0
413 1 1 1 -0.393628 -0.273737 0 0 0 0
414 1 1 1 -0.389201 -0.264771 0 0 0 0
415 1 1 1 -0.392251 -0.255248 0 0 0 0
416 1 1 1 -0.390401 -0.24542 0 0 0 0
417 1 1 1 -0.385985 -0.236356 0 0 0 0
418 1 1 1 -0.38516 -0.226391 0 0 0 0
419 1 1 1 -0.38582 -0.216413 0 0 0 0
420 1 1 1 -0.38702 -0.206477 0 0 0 0
421 1 1 1 -0.387929 -0.196519 0 0 0 0
422 1 1 1 -0.39106 -0.187021 0 0 0 0
423 1 1 1 -0.393789 -0.177384 0 0 0 0
424 1 1 1 -0.389582 -0.168314 0 0 0 0
425 1 1 1 -0.38698 -0.15866 0 0 0 0
426 1 1 1 -0.38575 -0.148737 0 0 0 0
427 1 1 1 -0.389017 -0.139287 0 0 0 0
428 1 1 1 -0.391812 -0.129688 0 0 0 0
429 1 1 1 -0.389323 -0.120004 0 0 0 0
430 1 1 1 -0.385 -0.11099 0 0 0 0
431 1 1 1 -0.387863 -0.101411 0 0 0 0
432 1 1 1 -0.391213 -0.0919912 0 0 0 0
433 1 1 1 -0.3948 -0.082659 0 0 0 0
434 1 1 1 -0.390458 -0.0736519 0 0 0 0
435 1 1 1 -0.386121 -0.0646425 0 0 0 0
436 1 1 1 -0.388926 -0.0522996 0 0 0 0
437 1 1 1 -0.391198 -0.0425618 0 0 0 0
438 1 1 1 -0.393335 -0.0327931 0 0 0 0
439 1 1 1 -0.394196 -0.0228317 0 0 0 0
440 1 1 1 -0.394095 -0.0128334 0 0 0 0
441 1 1 1 -0.388542 -0.00313811 0 0 0 0
442 1 1 1 -0.38978 0.00678539 0 0 0 0
443 1 1 1 -0.39417 0.0160229 0 0 0 0
444 1 1 1 -0.395097 0.0259792 0 0 0 0
445 1 1 1 -0.394506 0.035961 0 0 0 0
446 1 1 1 -0.392884 0.0458263 0 0 0 0
447 1 1 1 -0.390216 0.0554617 0 0 0 0
448 1 1 1 -0.387538 0.0650941 0 0 0 0
449 1 1 1 -0.391945 0.0740702 0 0 0 0
450 1 1 1 -0.396354 0.083045 0 0 0 0
451 1 1 1 -0.392989 0.0927529 0 0 0 0
452 1 1 1 -0.389237 0.102473 0 0 0 0
453 1 1 1 -0.385903 0.111924 0 0 0 0
454 1 1 1 -0.390584 0.120759 0 0 0 0
455 1 1 1 -0.390413 0.130756 0 0 0 0
456 1 1 1 -0.387622 0.140357 0 0 0 0
457 1 1 1 -0.383545 0.149488 0 0 0 0
458 1 1 1 -0.384746 0.159599 0 0 0 0
459 1 1 1 -0.387294 0.169399 0 0 0 0
460 1 1 1 -0.392341 0.178031 0 0 0 0
461 1 1 1 -0.390268 0.187812 0 0 0 0
462 1 1 1 -0.386647 0.197131 0 0 0 0
463 1 1 1 -0.386391 0.207125 0 0 0 0
464 1 1 1 -0.385864 0.217109 0 0 0 0
465 1 1 1 -0.385605 0.227103 0 0 0 0
466 1 1 1 -0.385375 0.237098 0 0 0 0
467 1 1 1 -0.389997 0.245963 0 0 0 0
468 1 1 1 -0.391959 0.255766 0 0 0 0
469 1 1 1 -0.389316 0.265409 0 0 0 0
470 1 1 1 -0.393735 0.274377 0 0 0 0
471 1 1 1 -0.39305 0.284352 0 0 0 0
472 1 1 1 -0.384788 0.296786 0 0 0 0
473 1 1 1 -0.375563 -0.307255 0 0 0 0
474 1 1 1 -0.375167 -0.297265 0 0 0 0
475 1 1 1 -0.38424 -0.285839 0 0 0 0
476 1 1 1 -0.383855 -0.275847 0 0 0 0
477 1 1 1 -0.379418 -0.266887 0 0 0 0
478 1 1 1 -0.38248 -0.257368 0 0 0 0
479 1 1 1 -0.38063 -0.247541 0 0 0 0
480 1 1 1 -0.373927 -0.235141 0 0 0 0
481 1 1 1 -0.374911 -0.225191 0 0 0 0
482 1 1 1 -0.375891 -0.215241 0 0 0 0
483 1 1 1 -0.377017 -0.205307 0 0 0 0
484 1 1 1 -0.377997 -0.195356 0 0 0 0
485 1 1 1 -0.381129 -0.185863 0 0 0 0
486 1 1 1 -0.383325 -0.17611 0 0 0 0
487 1 1 1 -0.37778 -0.167791 0 0 0 0
488 1 1 1 -0.375005 -0.158186 0 0 0 0
489 1 1 1 -0.375706 -0.148213 0 0 0 0
490 1 1 1 -0.379031 -0.138785 0 0 0 0
491 1 1 1 -0.381824 -0.129184 0 0 0 0
492 1 1 1 -0.379338 -0.119499 0 0 0 0
493 1 1 1 -0.375016 -0.110484 0 0 0 0
494 1 1 1 -0.377876 -0.100902 0 0 0 0
495 1 1 1 -0.380694 -0.0912844 0 0 0 0
496 1 1 1 -0.384828 -0.0819152 0 0 0 0
497 1 1 1 -0.380487 -0.072903 0 0 0 0
498 1 1 1 -0.376262 -0.0629877 0 0 0 0
499 1 1 1 -0.378968 -0.0531993 0 0 0 0
500 1 1 1 -0.381218 -0.0419287 0 0 0 0
501 1 1 1 -0.383357 -0.0321608 0 0 0 0
502 1 1 1 -0.384083 -0.0221872 0 0 0 0
503 1 1 1 -0.384124 -0.012109 0 0 0 0
504 1 1 1 -0.378564 -0.00379931 0 0 0 0
505 1 1 1 -0.3798 0.00612201 0 0 0 0
506 1 1 1 -0.384215 0.0150923 0 0 0 0
507 1 1 1 -0.385143 0.0250473 0 0 0 0
508 1 1 1 -0.384552 0.0350281 0 0 0 0
509 1 1 1 -0.382916 0.0450258 0 0 0 0
510 1 1 1 -0.380246 0.0546681 0 0 0 0
511 1 1 1 -0.377574 0.0643043 0 0 0 0
512 1 1 1 -0.381968 0.0733979 0 0 0 0
513 1 1 1 -0.386376 0.082374 0 0 0 0
514 1 1 1 -0.381582 0.0929484 0 0 0 0
515 1 1 1 -0.378849 0.102567 0 0 0 0
516 1 1 1 -0.375915 0.112369 0 0 0 0
517 1 1 1 -0.380596 0.121203 0 0 0 0
518 1 1 1 -0.380401 0.131201 0 0 0 0
519 1 1 1 -0.377635 0.140811 0 0 0 0
520 1 1 1 -0.373556 0.149938 0 0 0 0
521 1 1 1 -0.374497 0.159891 0 0 0 0
522 1 1 1 -0.377295 0.16949 0 0 0 0
523 1 1 1 -0.382343 0.17812 0 0 0 0
524 1 1 1 -0.379734 0.187776 0 0 0 0
525 1 1 1 -0.37665 0.197288 0 0 0 0
526 1 1 1 -0.376275 0.207279 0 0 0 0
527 1 1 1 -0.375867 0.21727 0 0 0 0
528 1 1 1 -0.375608 0.227264 0 0 0 0
529 1 1 1 -0.375256 0.237257 0 0 0 0
530 1 1 1 -0.380324 0.248494 0 0 0 0
531 1 1 1 -0.382286 0.258299 0 0 0 0
532 1 1 1 -0.379644 0.267941 0 0 0 0
533 1 1 1 -0.384062 0.276911 0 0 0 0
534 1 1 1 -0.383378 0.286887 0 0 0 0
535 1 1 1 -0.375048 0.299043 0 0 0 0
536 1 1 1 -0.375392 0.309037 0 0 0 0
537 1 1 1 -0.367051 -0.318868 0 0 0 0
538 1 1 1 -0.365711 -0.308959 0 0 0 0
539 1 1 1 -0.365314 -0.298969 0 0 0 0
540 1 1 1 -0.370302 -0.288529 0 0 0 0
541 1 1 1 -0.372023 -0.27868 0 0 0 0
542 1 1 1 -0.369595 -0.26898 0 0 0 0
543 1 1 1 -0.372706 -0.259477 0 0 0 0
544 1 1 1 -0.370856 -0.249651 0 0 0 0
545 1 1 1 -0.364818 -0.239264 0 0 0 0
546 1 1 1 -0.365801 -0.229314 0 0 0 0
547 1 1 1 -0.366783 -0.219364 0 0 0 0
548 1 1 1 -0.367764 -0.209415 0 0 0 0
549 1 1 1 -0.368891 -0.199481 0 0 0 0
550 1 1 1 -0.371089 -0.188056 0 0 0 0
551 1 1 1 -0.371744 -0.178078 0 0 0 0
552 1 1 1 -0.367841 -0.168872 0 0 0 0
553 1 1 1 -0.365064 -0.159266 0 0 0 0
554 1 1 1 -0.362835 -0.149518 0 0 0 0
555 1 1 1 -0.368786 -0.140997 0 0 0 0
556 1 1 1 -0.372112 -0.131567 0 0 0 0
557 1 1 1 -0.369463 -0.121926 0 0 0 0
558 1 1 1 -0.365298 -0.112835 0 0 0 0
559 1 1 1 -0.368122 -0.103244 0 0 0 0
560 1 1 1 -0.370981 -0.0936614 0 0 0 0
561 1 1 1 -0.373779 -0.0840613 0 0 0 0
562 1 1 1 -0.370441 -0.0746354 0 0 0 0
563 1 1 1 -0.366563 -0.0654177 0 0 0 0
564 1 1 1 -0.369314 -0.0557977 0 0 0 0
565 1 1 1 -0.37139 -0.0442294 0 0 0 0
566 1 1 1 -0.373376 -0.0327404 0 0 0 0
567 1 1 1 -0.3741 -0.0227678 0 0 0 0
568 1 1 1 -0.374148 -0.0127704 0 0 0 0
569 1 1 1 -0.368587 -0.00446174 0 0 0 0
570 1 1 1 -0.369822 0.00546017 0 0 0 0
571 1 1 1 -0.374238 0.0144311 0 0 0 0
572 1 1 1 -0.375168 0.0243859 0 0 0 0
573 1 1 1 -0.374563 0.0346494 0 0 0 0
574 1 1 1 -0.373237 0.0475368 0 0 0 0
575 1 1 1 -0.370565 0.0571718 0 0 0 0
576 1 1 1 -0.367897 0.0668072 0 0 0 0
577 1 1 1 -0.372313 0.0759972 0 0 0 0
578 1 1 1 -0.374619 0.0857713 0 0 0 0
579 1 1 1 -0.371886 0.0953901 0 0 0 0
580 1 1 1 -0.369151 0.105008 0 0 0 0
581 1 1 1 -0.366219 0.11481 0 0 0 0
582 1 1 1 -0.3709 0.123645 0 0 0 0
583 1 1 1 -0.370667 0.133641 0 0 0 0
584 1 1 1 -0.366468 0.142874 0 0 0 0
585 1 1 1 -0.363902 0.152537 0 0 0 0
586 1 1 1 -0.364689 0.162503 0 0 0 0
587 1 1 1 -0.367633 0.172058 0 0 0 0
588 1 1 1 -0.37268 0.180689 0 0 0 0
589 1 1 1 -0.369598 0.1902 0 0 0 0
590 1 1 1 -0.367795 0.201933 0 0 0 0
591 1 1 1 -0.36742 0.211924 0 0 0 0
592 1 1 1 -0.367033 0.221954 0 0 0 0
593 1 1 1 -0.366776 0.23195 0 0 0 0
594 1 1 1 -0.366423 0.241943 0 0 0 0
595 1 1 1 -0.370646 0.251007 0 0 0 0
596 1 1 1 -0.37261 0.260822 0 0 0 0
597 1 1 1 -0.369969 0.270467 0 0 0 0
598 1 1 1 -0.372162 0.280222 0 0 0 0
599 1 1 1 -0.37035 0.290055 0 0 0 0
600 1 1 1 -0.365512 0.30205 0 0 0 0
601 1 1 1 -0.365856 0.312042 0 0 0 0
602 1 1 1 -0.366925 0.321984 0 0 0 0
603 1 1 1 -0.358177 -0.328524 0 0 0 0
604 1 1 1 -0.357056 -0.318588 0 0 0 0
605 1 1 1 -0.355716 -0.308679 0 0 0 0
606 1 1 1 -0.35513 -0.298698 0 0 0 0
607 1 1 1 -0.36045 -0.290233 0 0 0 0
608 1 1 1 -0.36217 -0.280383 0 0 0 0
609 1 1 1 -0.35923 -0.270826 0 0 0 0
610 1 1 1 -0.362922 -0.261535 0 0 0 0
611 1 1 1 -0.361072 -0.25171 0 0 0 0
612 1 1 1 -0.35567 -0.243299 0 0 0 0
613 1 1 1 -0.356653 -0.23335 0 0 0 0
614 1 1 1 -0.357636 -0.223401 0 0 0 0
615 1 1 1 -0.358617 -0.213452 0 0 0 0
616 1 1 1 -0.359041 -0.202062 0 0 0 0
617 1 1 1 -0.361786 -0.192447 0 0 0 0
618 1 1 1 -0.362776 -0.182498 0 0 0 0
619 1 1 1 -0.358873 -0.173292 0 0 0 0
620 1 1 1 -0.356084 -0.163689 0 0 0 0
621 1 1 1 -0.353865 -0.153938 0 0 0 0
622 1 1 1 -0.354523 -0.14396 0 0 0 0
623 1 1 1 -0.357196 -0.134108 0 0 0 0
624 1 1 1 -0.359679 -0.124334 0 0 0 0
625 1 1 1 -0.355586 -0.11521 0 0 0 0
626 1 1 1 -0.358386 -0.10561 0 0 0 0
627 1 1 1 -0.361213 -0.0960195 0 0 0 0
628 1 1 1 -0.364067 -0.0864383 0 0 0 0
629 1 1 1 -0.360728 -0.0770148 0 0 0 0
630 1 1 1 -0.356853 -0.0677987 0 0 0 0
631 1 1 1 -0.359607 -0.0581889 0 0 0 0
632 1 1 1 -0.362389 -0.0485847 0 0 0 0
633 1 1 1 -0.364378 -0.037101 0 0 0 0
634 1 1 1 -0.365102 -0.0271273 0 0 0 0
635 1 1 1 -0.36515 -0.0171283 0 0 0 0
636 1 1 1 -0.359586 -0.00881914 0 0 0 0
637 1 1 1 -0.360937 0.0100442 0 0 0 0
638 1 1 1 -0.36524 0.0190695 0 0 0 0
639 1 1 1 -0.366306 0.0290114 0 0 0 0
640 1 1 1 -0.365554 0.0389812 0 0 0 0
641 1 1 1 -0.363514 0.0500817 0 0 0 0
642 1 1 1 -0.360844 0.0597181 0 0 0 0
643 1 1 1 -0.358236 0.0693715 0 0 0 0
644 1 1 1 -0.36142 0.0788493 0 0 0 0
645 1 1 1 -0.364922 0.0882142 0 0 0 0
646 1 1 1 -0.362191 0.0978319 0 0 0 0
647 1 1 1 -0.359454 0.107448 0 0 0 0
648 1 1 1 -0.355682 0.116707 0 0 0 0
649 1 1 1 -0.356978 0.126621 0 0 0 0
650 1 1 1 -0.358806 0.136451 0 0 0 0
651 1 1 1 -0.356237 0.146117 0 0 0 0
652 1 1 1 -0.353667 0.155781 0 0 0 0
653 1 1 1 -0.355228 0.165735 0 0 0 0
654 1 1 1 -0.358171 0.175292 0 0 0 0
655 1 1 1 -0.361103 0.184852 0 0 0 0
656 1 1 1 -0.360744 0.194844 0 0 0 0
657 1 1 1 -0.35813 0.204496 0 0 0 0
658 1 1 1 -0.357763 0.214512 0 0 0 0
659 1 1 1 -0.357363 0.224504 0 0 0 0
660 1 1 1 -0.357108 0.234501 0 0 0 0
661 1 1 1 -0.356754 0.244494 0 0 0 0
662 1 1 1 -0.360978 0.253556 0 0 0 0
663 1 1 1 -0.362935 0.263361 0 0 0 0
664 1 1 1 -0.360298 0.273006 0 0 0 0
665 1 1 1 -0.362671 0.283367 0 0 0 0
666 1 1 1 -0.360859 0.2932 0 0 0 0
667 1 1 1 -0.355522 0.301656 0 0 0 0
668 1 1 1 -0.355864 0.311649 0 0 0 0
669 1 1 1 -0.356934 0.32159 0 0 0 0
670 1 1 1 -0.357838 0.331548 0 0 0 0
671 1 1 1 -0.349124 -0.338101 0 0 0 0
672 1 1 1 -0.348186 -0.328147 0 0 0 0
673 1 1 1 -0.347065 -0.318211 0 0 0 0
674 1 1 1 -0.345724 -0.308303 0 0 0 0
675 1 1 1 -0.345135 -0.298321 0 0 0 0
676 1 1 1 -0.350459 -0.289857 0 0 0 0
677 1 1 1 -0.351938 -0.279968 0 0 0 0
678 1 1 1 -0.347247 -0.271138 0 0 0 0
679 1 1 1 -0.353029 -0.262981 0 0 0 0
680 1 1 1 -0.350442 -0.253322 0 0 0 0
681 1 1 1 -0.345746 -0.244494 0 0 0 0
682 1 1 1 -0.346711 -0.234423 0 0 0 0
683 1 1 1 -0.347693 -0.224468 0 0 0 0
684 1 1 1 -0.34867 -0.214466 0 0 0 0
685 1 1 1 -0.34933 -0.204488 0 0 0 0
686 1 1 1 -0.352087 -0.194876 0 0 0 0
687 1 1 1 -0.353053 -0.184923 0 0 0 0
688 1 1 1 -0.349171 -0.175708 0 0 0 0
689 1 1 1 -0.346358 -0.166112 0 0 0 0
690 1 1 1 -0.344162 -0.156356 0 0 0 0
691 1 1 1 -0.344725 -0.146372 0 0 0 0
692 1 1 1 -0.347561 -0.136783 0 0 0 0
693 1 1 1 -0.350068 -0.127095 0 0 0 0
694 1 1 1 -0.345977 -0.117971 0 0 0 0
695 1 1 1 -0.34839 -0.108268 0 0 0 0
696 1 1 1 -0.351188 -0.0986685 0 0 0 0
697 1 1 1 -0.354018 -0.0890786 0 0 0 0
698 1 1 1 -0.351 -0.0795468 0 0 0 0
699 1 1 1 -0.347176 -0.0703077 0 0 0 0
700 1 1 1 -0.349842 -0.0606711 0 0 0 0
701 1 1 1 -0.352597 -0.0510598 0 0 0 0
702 1 1 1 -0.355377 -0.0414565 0 0 0 0
703 1 1 1 -0.356105 -0.0314858 0 0 0 0
704 1 1 1 -0.356151 -0.0214873 0 0 0 0
705 1 1 1 -0.349338 -0.00662268 0 0 0 0
706 1 1 1 -0.351049 0.00856069 0 0 0 0
707 1 1 1 -0.3561 0.0231264 0 0 0 0
708 1 1 1 -0.35717 0.0330678 0 0 0 0
709 1 1 1 -0.356417 0.0430376 0 0 0 0
710 1 1 1 -0.35369 0.0526551 0 0 0 0
711 1 1 1 -0.351146 0.0623228 0 0 0 0
712 1 1 1 -0.348589 0.071989 0 0 0 0
713 1 1 1 -0.35177 0.081468 0 0 0 0
714 1 1 1 -0.354941 0.0909498 0 0 0 0
715 1 1 1 -0.352201 0.100566 0 0 0 0
716 1 1 1 -0.34684 0.109007 0 0 0 0
717 1 1 1 -0.345941 0.118967 0 0 0 0
718 1 1 1 -0.347325 0.129229 0 0 0 0
719 1 1 1 -0.349154 0.13906 0 0 0 0
720 1 1 1 -0.346583 0.148723 0 0 0 0
721 1 1 1 -0.344012 0.158386 0 0 0 0
722 1 1 1 -0.345556 0.168266 0 0 0 0
723 1 1 1 -0.348497 0.177823 0 0 0 0
724 1 1 1 -0.35143 0.187383 0 0 0 0
725 1 1 1 -0.351077 0.197398 0 0 0 0
726 1 1 1 -0.348462 0.207049 0 0 0 0
727 1 1 1 -0.34809 0.217041 0 0 0 0
728 1 1 1 -0.347678 0.227031 0 0 0 0
729 1 1 1 -0.347433 0.237027 0 0 0 0
730 1 1 1 -0.34708 0.24702 0 0 0 0
731 1 1 1 -0.351303 0.256085 0 0 0 0
732 1 1 1 -0.353262 0.265892 0 0 0 0
733 1 1 1 -0.347522 0.274079 0 0 0 0
734 1 1 1 -0.352234 0.282899 0 0 0 0
735 1 1 1 -0.350869 0.292805 0 0 0 0
736 1 1 1 -0.345531 0.30126 0 0 0 0
737 1 1 1 -0.345866 0.311254 0 0 0 0
738 1 1 1 -0.346943 0.321196 0 0 0 0
739 1 1 1 -0.347847 0.331154 0 0 0 0
740 1 1 1 -0.348666 0.341119 0 0 0 0
741 1 1 1 -0.339931 -0.347651 0 0 0 0
742 1 1 1 -0.339135 -0.337684 0 0 0 0
743 1 1 1 -0.338195 -0.327729 0 0 0 0
744 1 1 1 -0.337075 -0.317793 0 0 0 0
745 1 1 1 -0.335734 -0.307883 0 0 0 0
746 1 1 1 -0.335085 -0.297905 0 0 0 0
747 1 1 1 -0.340468 -0.289478 0 0 0 0
748 1 1 1 -0.341887 -0.27958 0 0 0 0
749 1 1 1 -0.337258 -0.270716 0 0 0 0
750 1 1 1 -0.343072 -0.262053 0 0 0 0
751 1 1 1 -0.339683 -0.252445 0 0 0 0
752 1 1 1 -0.335852 -0.243066 0 0 0 0
753 1 1 1 -0.336798 -0.233111 0 0 0 0
754 1 1 1 -0.33778 -0.22316 0 0 0 0
755 1 1 1 -0.33875 -0.213208 0 0 0 0
756 1 1 1 -0.339361 -0.203228 0 0 0 0
757 1 1 1 -0.342167 -0.19363 0 0 0 0
758 1 1 1 -0.343131 -0.183677 0 0 0 0
759 1 1 1 -0.339252 -0.174461 0 0 0 0
760 1 1 1 -0.336437 -0.16487 0 0 0 0
761 1 1 1 -0.333637 -0.155273 0 0 0 0
762 1 1 1 -0.334779 -0.14534 0 0 0 0
763 1 1 1 -0.337616 -0.135753 0 0 0 0
764 1 1 1 -0.340121 -0.126074 0 0 0 0
765 1 1 1 -0.336027 -0.116953 0 0 0 0
766 1 1 1 -0.338377 -0.106928 0 0 0 0
767 1 1 1 -0.341275 -0.0973574 0 0 0 0
768 1 1 1 -0.344106 -0.087767 0 0 0 0
769 1 1 1 -0.341087 -0.078236 0 0 0 0
770 1 1 1 -0.337523 -0.0676239 0 0 0 0
771 1 1 1 -0.340209 -0.0579923 0 0 0 0
772 1 1 1 -0.342963 -0.0483806 0 0 0 0
773 1 1 1 -0.345743 -0.0387767 0 0 0 0
774 1 1 1 -0.34747 -0.0264506 0 0 0 0
775 1 1 1 -0.347506 -0.0164525 0 0 0 0
776 1 1 1 -0.339141 -0.00425521 0 0 0 0
777 1 1 1 -0.341547 0.00544987 0 0 0 0
778 1 1 1 -0.346266 0.0173412 0 0 0 0
779 1 1 1 -0.347768 0.0296687 0 0 0 0
780 1 1 1 -0.347 0.0396794 0 0 0 0
781 1 1 1 -0.343976 0.0492099 0 0 0 0
782 1 1 1 -0.340502 0.0585859 0 0 0 0
783 1 1 1 -0.338801 0.0699442 0 0 0 0
784 1 1 1 -0.34197 0.0794793 0 0 0 0
785 1 1 1 -0.345143 0.0889624 0 0 0 0
786 1 1 1 -0.342396 0.0986086 0 0 0 0
787 1 1 1 -0.336933 0.107647 0 0 0 0
788 1 1 1 -0.335859 0.118332 0 0 0 0
789 1 1 1 -0.337378 0.128215 0 0 0 0
790 1 1 1 -0.339208 0.138044 0 0 0 0
791 1 1 1 -0.336547 0.147681 0 0 0 0
792 1 1 1 -0.334056 0.157365 0 0 0 0
793 1 1 1 -0.33561 0.167241 0 0 0 0
794 1 1 1 -0.33855 0.176797 0 0 0 0
795 1 1 1 -0.341483 0.186357 0 0 0 0