LAMMPS Data File for updated particles
9960 atoms

1 atom types
-1.0 1.0 xlo xhi
-1.0 1.0  ylo yhi
-0.5 0.5 zlo zhi

Atoms

1 1 1 1 -0.524397 -0.54154 0 0 0 0
2 1 1 1 -0.573444 -0.395094 0 0 0 0
3 1 1 1 -0.527461 -0.216888 0 0 0 0
4 1 1 1 -0.492555 -0.224842 0 0 0 0
5 1 1 1 -0.480863 -0.234071 0 0 0 0
6 1 1 1 -0.589518 -0.318068 0 0 0 0
7 1 1 1 -0.54473 -0.236693 0 0 0 0
8 1 1 1 -0.584264 -0.212884 0 0 0 0
9 1 1 1 -0.547574 -0.192149 0 0 0 0
10 1 1 1 -0.537684 -0.190678 0 0 0 0
11 1 1 1 -0.540625 -0.17603 0 0 0 0
12 1 1 1 -0.544361 -0.157419 0 0 0 0
13 1 1 1 -0.571334 -0.127451 0 0 0 0
14 1 1 1 -0.575772 -0.378405 0 0 0 0
15 1 1 1 -0.527685 -0.190731 0 0 0 0
16 1 1 1 -0.541333 -0.227289 0 0 0 0
17 1 1 1 -0.534972 -0.118872 0 0 0 0
18 1 1 1 -0.532638 -0.182045 0 0 0 0
19 1 1 1 -0.496667 -0.194185 0 0 0 0
20 1 1 1 -0.482428 -0.224195 0 0 0 0
21 1 1 1 -0.469595 -0.248541 0 0 0 0
22 1 1 1 -0.472084 -0.238857 0 0 0 0
23 1 1 1 -0.492402 -0.206862 0 0 0 0
24 1 1 1 -0.487415 -0.215528 0 0 0 0
25 1 1 1 -0.477416 -0.215543 0 0 0 0
26 1 1 1 -0.482403 -0.206876 0 0 0 0
27 1 1 1 -0.48117 -0.188967 0 0 0 0
28 1 1 1 -0.513857 -0.192078 0 0 0 0
29 1 1 1 -0.522639 -0.182099 0 0 0 0
30 1 1 1 -0.531422 -0.17212 0 0 0 0
31 1 1 1 -0.539409 -0.166105 0 0 0 0
32 1 1 1 -0.582393 -0.114122 0 0 0 0
33 1 1 1 -0.563639 -0.121066 0 0 0 0
34 1 1 1 -0.573016 -0.117594 0 0 0 0
35 1 1 1 -0.585757 -0.094409 0 0 0 0
36 1 1 1 -0.584075 -0.104266 0 0 0 0
37 1 1 1 -0.574698 -0.107737 0 0 0 0
38 1 1 1 -0.57638 -0.0978808 0 0 0 0
39 1 1 1 -0.578061 -0.0880242 0 0 0 0
40 1 1 1 -0.579743 -0.0781676 0 0 0 0
41 1 1 1 -0.581425 -0.068311 0 0 0 0
42 1 1 1 -0.583107 -0.0584544 0 0 0 0
43 1 1 1 -0.584789 -0.0485976 0 0 0 0
44 1 1 1 -0.586471 -0.0387409 0 0 0 0
45 1 1 1 -0.58601 -0.0254539 0 0 0 0
46 1 1 1 -0.573991 0.00702975 0 0 0 0
47 1 1 1 -0.581684 0.000642607 0 0 0 0
48 1 1 1 -0.554824 0.0126087 0 0 0 0
49 1 1 1 -0.545409 0.00335 0 0 0 0
50 1 1 1 -0.505773 0.0167118 0 0 0 0
51 1 1 1 -0.553986 0.0225727 0 0 0 0
52 1 1 1 -0.583369 0.0104987 0 0 0 0
53 1 1 1 -0.579886 0.0357715 0 0 0 0
54 1 1 1 -0.586232 0.0434987 0 0 0 0
55 1 1 1 -0.583953 0.0532345 0 0 0 0
56 1 1 1 -0.580726 0.0638578 0 0 0 0
57 1 1 1 -0.577207 0.073217 0 0 0 0
58 1 1 1 -0.573687 0.0825761 0 0 0 0
59 1 1 1 -0.570167 0.0919353 0 0 0 0
60 1 1 1 -0.566647 0.101294 0 0 0 0
61 1 1 1 -0.563127 0.110653 0 0 0 0
62 1 1 1 -0.559607 0.120012 0 0 0 0
63 1 1 1 -0.546836 0.13121 0 0 0 0
64 1 1 1 -0.537237 0.134006 0 0 0 0
65 1 1 1 -0.52976 0.140713 0 0 0 0
66 1 1 1 -0.529758 0.150739 0 0 0 0
67 1 1 1 -0.531763 0.160536 0 0 0 0
68 1 1 1 -0.52428 0.167171 0 0 0 0
69 1 1 1 -0.516704 0.173988 0 0 0 0
70 1 1 1 -0.518209 0.184189 0 0 0 0
71 1 1 1 -0.513522 0.193023 0 0 0 0
72 1 1 1 -0.505642 0.199244 0 0 0 0
73 1 1 1 -0.497777 0.205422 0 0 0 0
74 1 1 1 -0.489911 0.211599 0 0 0 0
75 1 1 1 -0.482046 0.217775 0 0 0 0
76 1 1 1 -0.47418 0.223949 0 0 0 0
77 1 1 1 -0.466315 0.230124 0 0 0 0
78 1 1 1 -0.458449 0.236297 0 0 0 0
79 1 1 1 -0.450584 0.242472 0 0 0 0
80 1 1 1 -0.452677 0.252249 0 0 0 0
81 1 1 1 -0.462649 0.252988 0 0 0 0
82 1 1 1 -0.471048 0.258413 0 0 0 0
83 1 1 1 -0.479448 0.263839 0 0 0 0
84 1 1 1 -0.481498 0.273625 0 0 0 0
85 1 1 1 -0.480998 0.283612 0 0 0 0
86 1 1 1 -0.463468 0.302746 0 0 0 0
87 1 1 1 -0.454751 0.307644 0 0 0 0
88 1 1 1 -0.452227 0.317319 0 0 0 0
89 1 1 1 -0.448359 0.32654 0 0 0 0
90 1 1 1 -0.439641 0.331438 0 0 0 0
91 1 1 1 -0.430924 0.336337 0 0 0 0
92 1 1 1 -0.430487 0.346326 0 0 0 0
93 1 1 1 -0.43037 0.356325 0 0 0 0
94 1 1 1 -0.403262 0.380679 0 0 0 0
95 1 1 1 -0.394178 0.38486 0 0 0 0
96 1 1 1 -0.384936 0.389024 0 0 0 0
97 1 1 1 -0.375773 0.393054 0 0 0 0
98 1 1 1 -0.368211 0.410621 0 0 0 0
99 1 1 1 -0.374673 0.402991 0 0 0 0
100 1 1 1 -0.38383 0.398975 0 0 0 0
101 1 1 1 -0.460721 -0.40298 0 0 0 0
102 1 1 1 -0.450749 -0.402257 0 0 0 0
103 1 1 1 -0.440959 -0.404291 0 0 0 0
104 1 1 1 -0.432321 -0.409327 0 0 0 0
105 1 1 1 -0.413302 -0.401412 0 0 0 0
106 1 1 1 -0.404002 -0.397737 0 0 0 0
107 1 1 1 -0.411834 -0.391521 0 0 0 0
108 1 1 1 -0.410368 -0.381631 0 0 0 0
109 1 1 1 -0.408901 -0.37174 0 0 0 0
110 1 1 1 -0.416734 -0.365528 0 0 0 0
111 1 1 1 -0.424573 -0.359322 0 0 0 0
112 1 1 1 -0.42533 -0.349353 0 0 0 0
113 1 1 1 -0.423875 -0.33946 0 0 0 0
114 1 1 1 -0.422421 -0.329568 0 0 0 0
115 1 1 1 -0.420966 -0.319675 0 0 0 0
116 1 1 1 -0.423393 -0.309975 0 0 0 0
117 1 1 1 -0.428057 -0.292175 0 0 0 0
118 1 1 1 -0.418879 -0.288029 0 0 0 0
119 1 1 1 -0.427025 -0.282229 0 0 0 0
120 1 1 1 -0.460361 -0.26122 0 0 0 0
121 1 1 1 -0.459964 -0.251228 0 0 0 0
122 1 1 1 -0.462453 -0.241544 0 0 0 0
123 1 1 1 -0.457442 -0.232891 0 0 0 0
124 1 1 1 -0.462429 -0.224224 0 0 0 0
125 1 1 1 -0.467417 -0.215557 0 0 0 0
126 1 1 1 -0.472404 -0.206891 0 0 0 0
127 1 1 1 -0.477391 -0.198224 0 0 0 0
128 1 1 1 -0.504654 -0.188169 0 0 0 0
129 1 1 1 -0.51264 -0.182153 0 0 0 0
130 1 1 1 -0.521423 -0.172174 0 0 0 0
131 1 1 1 -0.530206 -0.162195 0 0 0 0
132 1 1 1 -0.535158 -0.153509 0 0 0 0
133 1 1 1 -0.530112 -0.144877 0 0 0 0
134 1 1 1 -0.520113 -0.144931 0 0 0 0
135 1 1 1 -0.525066 -0.136245 0 0 0 0
136 1 1 1 -0.530019 -0.127558 0 0 0 0
137 1 1 1 -0.565321 -0.111209 0 0 0 0
138 1 1 1 -0.567002 -0.101353 0 0 0 0
139 1 1 1 -0.568684 -0.0914961 0 0 0 0
140 1 1 1 -0.570366 -0.0816394 0 0 0 0
141 1 1 1 -0.572048 -0.0717829 0 0 0 0
142 1 1 1 -0.57373 -0.0619262 0 0 0 0
143 1 1 1 -0.575412 -0.0520696 0 0 0 0
144 1 1 1 -0.577094 -0.0422129 0 0 0 0
145 1 1 1 -0.578776 -0.0323561 0 0 0 0
146 1 1 1 -0.578315 -0.0190694 0 0 0 0
147 1 1 1 -0.579998 -0.00921349 0 0 0 0
148 1 1 1 -0.572306 -0.00282636 0 0 0 0
149 1 1 1 -0.562702 0.0274725 0 0 0 0
150 1 1 1 -0.512463 0.00927978 0 0 0 0
151 1 1 1 -0.544099 0.0240628 0 0 0 0
152 1 1 1 -0.572594 0.0289294 0 0 0 0
153 1 1 1 -0.570315 0.0386654 0 0 0 0
154 1 1 1 -0.576661 0.0463932 0 0 0 0
155 1 1 1 -0.574382 0.0561295 0 0 0 0
156 1 1 1 -0.570862 0.0654888 0 0 0 0
157 1 1 1 -0.567342 0.0748482 0 0 0 0
158 1 1 1 -0.563822 0.0842074 0 0 0 0
159 1 1 1 -0.560302 0.0935665 0 0 0 0
160 1 1 1 -0.556782 0.102926 0 0 0 0
161 1 1 1 -0.553262 0.112284 0 0 0 0
162 1 1 1 -0.549742 0.121643 0 0 0 0
163 1 1 1 -0.539989 0.123847 0 0 0 0
164 1 1 1 -0.527727 0.130923 0 0 0 0
165 1 1 1 -0.520264 0.137578 0 0 0 0
166 1 1 1 -0.520271 0.147578 0 0 0 0
167 1 1 1 -0.522278 0.157374 0 0 0 0
168 1 1 1 -0.514784 0.16404 0 0 0 0
169 1 1 1 -0.507279 0.170648 0 0 0 0
170 1 1 1 -0.50891 0.180513 0 0 0 0
171 1 1 1 -0.504224 0.189346 0 0 0 0
172 1 1 1 -0.496361 0.195524 0 0 0 0
173 1 1 1 -0.488496 0.201701 0 0 0 0
174 1 1 1 -0.480631 0.207876 0 0 0 0
175 1 1 1 -0.472766 0.214051 0 0 0 0
176 1 1 1 -0.4649 0.220225 0 0 0 0
177 1 1 1 -0.457035 0.226399 0 0 0 0
178 1 1 1 -0.449169 0.232573 0 0 0 0
179 1 1 1 -0.441304 0.238747 0 0 0 0
180 1 1 1 -0.44378 0.256811 0 0 0 0
181 1 1 1 -0.452179 0.262236 0 0 0 0
182 1 1 1 -0.46215 0.262975 0 0 0 0
183 1 1 1 -0.47055 0.268399 0 0 0 0
184 1 1 1 -0.472599 0.278186 0 0 0 0
185 1 1 1 -0.463585 0.292747 0 0 0 0
186 1 1 1 -0.454868 0.297646 0 0 0 0
187 1 1 1 -0.446151 0.302544 0 0 0 0
188 1 1 1 -0.443626 0.312219 0 0 0 0
189 1 1 1 -0.439758 0.32144 0 0 0 0
190 1 1 1 -0.431041 0.326338 0 0 0 0
191 1 1 1 -0.422324 0.331236 0 0 0 0
192 1 1 1 -0.421888 0.341225 0 0 0 0
193 1 1 1 -0.42177 0.351223 0 0 0 0
194 1 1 1 -0.404182 0.370721 0 0 0 0
195 1 1 1 -0.3951 0.374903 0 0 0 0
196 1 1 1 -0.386017 0.379083 0 0 0 0
197 1 1 1 -0.376869 0.383117 0 0 0 0
198 1 1 1 -0.376218 0.41661 0 0 0 0
199 1 1 1 -0.38268 0.40898 0 0 0 0
200 1 1 1 -0.391837 0.404964 0 0 0 0
201 1 1 1 -0.460746 -0.412979 0 0 0 0
202 1 1 1 -0.450773 -0.412256 0 0 0 0
203 1 1 1 -0.440987 -0.414314 0 0 0 0
204 1 1 1 -0.42407 -0.414974 0 0 0 0
205 1 1 1 -0.41477 -0.411302 0 0 0 0
206 1 1 1 -0.40547 -0.407629 0 0 0 0
207 1 1 1 -0.402535 -0.387846 0 0 0 0
208 1 1 1 -0.401068 -0.377955 0 0 0 0
209 1 1 1 -0.399602 -0.368063 0 0 0 0
210 1 1 1 -0.407436 -0.361849 0 0 0 0
211 1 1 1 -0.415276 -0.355636 0 0 0 0
212 1 1 1 -0.416036 -0.345667 0 0 0 0
213 1 1 1 -0.414581 -0.335774 0 0 0 0
214 1 1 1 -0.413126 -0.325882 0 0 0 0
215 1 1 1 -0.411672 -0.315989 0 0 0 0
216 1 1 1 -0.414098 -0.306288 0 0 0 0
217 1 1 1 -0.421938 -0.300082 0 0 0 0
218 1 1 1 -0.417931 -0.278074 0 0 0 0
219 1 1 1 -0.426077 -0.272275 0 0 0 0
220 1 1 1 -0.450362 -0.261233 0 0 0 0
221 1 1 1 -0.449965 -0.251242 0 0 0 0
222 1 1 1 -0.452454 -0.241557 0 0 0 0
223 1 1 1 -0.447443 -0.232904 0 0 0 0
224 1 1 1 -0.45243 -0.224238 0 0 0 0
225 1 1 1 -0.457418 -0.215572 0 0 0 0
226 1 1 1 -0.462404 -0.206905 0 0 0 0
227 1 1 1 -0.467392 -0.198239 0 0 0 0
228 1 1 1 -0.49545 -0.18426 0 0 0 0
229 1 1 1 -0.503437 -0.178244 0 0 0 0
230 1 1 1 -0.511424 -0.172228 0 0 0 0
231 1 1 1 -0.520207 -0.162249 0 0 0 0
232 1 1 1 -0.525159 -0.153563 0 0 0 0
233 1 1 1 -0.505162 -0.153671 0 0 0 0
234 1 1 1 -0.510114 -0.144985 0 0 0 0
235 1 1 1 -0.515067 -0.136298 0 0 0 0
236 1 1 1 -0.52002 -0.127612 0 0 0 0
237 1 1 1 -0.524973 -0.118926 0 0 0 0
238 1 1 1 -0.557625 -0.104824 0 0 0 0
239 1 1 1 -0.559307 -0.0949678 0 0 0 0
240 1 1 1 -0.560989 -0.0851113 0 0 0 0
241 1 1 1 -0.562671 -0.0752547 0 0 0 0
242 1 1 1 -0.564353 -0.0653981 0 0 0 0
243 1 1 1 -0.566035 -0.0555415 0 0 0 0
244 1 1 1 -0.567717 -0.0456849 0 0 0 0
245 1 1 1 -0.569399 -0.0358281 0 0 0 0
246 1 1 1 -0.57108 -0.0259712 0 0 0 0
247 1 1 1 -0.57062 -0.012683 0 0 0 0
248 1 1 1 -0.562928 -0.00629459 0 0 0 0
249 1 1 1 -0.554168 -0.00147207 0 0 0 0
250 1 1 1 -0.515555 0.0187887 0 0 0 0
251 1 1 1 -0.544898 0.0138211 0 0 0 0
252 1 1 1 -0.554101 0.0325711 0 0 0 0
253 1 1 1 -0.560449 0.040297 0 0 0 0
254 1 1 1 -0.566796 0.0480244 0 0 0 0
255 1 1 1 -0.564517 0.0577607 0 0 0 0
256 1 1 1 -0.560997 0.0671203 0 0 0 0
257 1 1 1 -0.557477 0.0764796 0 0 0 0
258 1 1 1 -0.553957 0.0858388 0 0 0 0
259 1 1 1 -0.550437 0.095198 0 0 0 0
260 1 1 1 -0.546916 0.104557 0 0 0 0
261 1 1 1 -0.543396 0.113916 0 0 0 0
262 1 1 1 -0.533531 0.115547 0 0 0 0
263 1 1 1 -0.523665 0.117177 0 0 0 0
264 1 1 1 -0.518239 0.127767 0 0 0 0
265 1 1 1 -0.510777 0.134421 0 0 0 0
266 1 1 1 -0.510784 0.14442 0 0 0 0
267 1 1 1 -0.512792 0.154216 0 0 0 0
268 1 1 1 -0.505309 0.160846 0 0 0 0
269 1 1 1 -0.49671 0.165951 0 0 0 0
270 1 1 1 -0.498681 0.175754 0 0 0 0
271 1 1 1 -0.494944 0.185626 0 0 0 0
272 1 1 1 -0.48708 0.191803 0 0 0 0
273 1 1 1 -0.479216 0.197978 0 0 0 0
274 1 1 1 -0.471351 0.204153 0 0 0 0
275 1 1 1 -0.463486 0.210327 0 0 0 0
276 1 1 1 -0.455621 0.216501 0 0 0 0
277 1 1 1 -0.447755 0.222675 0 0 0 0
278 1 1 1 -0.43989 0.228849 0 0 0 0
279 1 1 1 -0.432024 0.235023 0 0 0 0
280 1 1 1 -0.434882 0.261372 0 0 0 0
281 1 1 1 -0.443281 0.266797 0 0 0 0
282 1 1 1 -0.45168 0.272223 0 0 0 0
283 1 1 1 -0.461652 0.272962 0 0 0 0
284 1 1 1 -0.463702 0.282749 0 0 0 0
285 1 1 1 -0.454985 0.287647 0 0 0 0
286 1 1 1 -0.446268 0.292545 0 0 0 0
287 1 1 1 -0.43755 0.297443 0 0 0 0
288 1 1 1 -0.435026 0.307118 0 0 0 0
289 1 1 1 -0.431158 0.316339 0 0 0 0
290 1 1 1 -0.422441 0.321237 0 0 0 0
291 1 1 1 -0.412538 0.329186 0 0 0 0
292 1 1 1 -0.4121 0.339175 0 0 0 0
293 1 1 1 -0.412051 0.353574 0 0 0 0
294 1 1 1 -0.405102 0.360764 0 0 0 0
295 1 1 1 -0.39602 0.364947 0 0 0 0
296 1 1 1 -0.36793 0.445381 0 0 0 0
297 1 1 1 -0.363512 0.436411 0 0 0 0
298 1 1 1 -0.379588 0.426022 0 0 0 0
299 1 1 1 -0.386056 0.418392 0 0 0 0
300 1 1 1 -0.395213 0.414376 0 0 0 0
301 1 1 1 -0.455134 -0.421254 0 0 0 0
302 1 1 1 -0.445348 -0.423312 0 0 0 0
303 1 1 1 -0.435362 -0.422796 0 0 0 0
304 1 1 1 -0.42557 -0.42486 0 0 0 0
305 1 1 1 -0.416241 -0.421192 0 0 0 0
306 1 1 1 -0.40694 -0.41752 0 0 0 0
307 1 1 1 -0.394703 -0.394062 0 0 0 0
308 1 1 1 -0.393236 -0.384171 0 0 0 0
309 1 1 1 -0.39177 -0.37428 0 0 0 0
310 1 1 1 -0.398137 -0.358171 0 0 0 0
311 1 1 1 -0.405978 -0.351956 0 0 0 0
312 1 1 1 -0.406741 -0.341981 0 0 0 0
313 1 1 1 -0.405286 -0.332088 0 0 0 0
314 1 1 1 -0.403832 -0.322195 0 0 0 0
315 1 1 1 -0.402378 -0.312302 0 0 0 0
316 1 1 1 -0.404804 -0.302602 0 0 0 0
317 1 1 1 -0.412643 -0.296395 0 0 0 0
318 1 1 1 -0.409785 -0.283872 0 0 0 0
319 1 1 1 -0.441908 -0.266573 0 0 0 0
320 1 1 1 -0.441511 -0.256582 0 0 0 0
321 1 1 1 -0.441113 -0.246591 0 0 0 0
322 1 1 1 -0.432458 -0.241585 0 0 0 0
323 1 1 1 -0.437444 -0.232918 0 0 0 0
324 1 1 1 -0.442431 -0.224252 0 0 0 0
325 1 1 1 -0.447419 -0.215586 0 0 0 0
326 1 1 1 -0.452405 -0.20692 0 0 0 0
327 1 1 1 -0.457393 -0.198253 0 0 0 0
328 1 1 1 -0.486247 -0.180352 0 0 0 0
329 1 1 1 -0.494234 -0.174336 0 0 0 0
330 1 1 1 -0.502221 -0.168319 0 0 0 0
331 1 1 1 -0.510208 -0.162304 0 0 0 0
332 1 1 1 -0.51516 -0.153617 0 0 0 0
333 1 1 1 -0.495162 -0.153724 0 0 0 0
334 1 1 1 -0.500115 -0.145038 0 0 0 0
335 1 1 1 -0.505068 -0.136352 0 0 0 0
336 1 1 1 -0.510021 -0.127666 0 0 0 0
337 1 1 1 -0.514974 -0.11898 0 0 0 0
338 1 1 1 -0.548248 -0.108296 0 0 0 0
339 1 1 1 -0.54993 -0.0984397 0 0 0 0
340 1 1 1 -0.551612 -0.0885829 0 0 0 0
341 1 1 1 -0.553294 -0.0787264 0 0 0 0
342 1 1 1 -0.554976 -0.0688698 0 0 0 0
343 1 1 1 -0.556658 -0.0590132 0 0 0 0
344 1 1 1 -0.55834 -0.0491567 0 0 0 0
345 1 1 1 -0.560022 -0.0393006 0 0 0 0
346 1 1 1 -0.561704 -0.0294431 0 0 0 0
347 1 1 1 -0.563385 -0.0195861 0 0 0 0
348 1 1 1 -0.554372 -0.0114686 0 0 0 0
349 1 1 1 -0.545612 -0.00664728 0 0 0 0
350 1 1 1 -0.522279 0.0111764 0 0 0 0
351 1 1 1 -0.530855 0.0163178 0 0 0 0
352 1 1 1 -0.544236 0.0342054 0 0 0 0
353 1 1 1 -0.550585 0.0419309 0 0 0 0
354 1 1 1 -0.556932 0.0496572 0 0 0 0
355 1 1 1 -0.554651 0.0593927 0 0 0 0
356 1 1 1 -0.551132 0.0687521 0 0 0 0
357 1 1 1 -0.547612 0.078111 0 0 0 0
358 1 1 1 -0.544092 0.0874701 0 0 0 0
359 1 1 1 -0.540571 0.0968288 0 0 0 0
360 1 1 1 -0.537051 0.106188 0 0 0 0
361 1 1 1 -0.527186 0.107818 0 0 0 0
362 1 1 1 -0.51732 0.109448 0 0 0 0
363 1 1 1 -0.5138 0.118807 0 0 0 0
364 1 1 1 -0.506329 0.125453 0 0 0 0
365 1 1 1 -0.500799 0.133782 0 0 0 0
366 1 1 1 -0.500806 0.14378 0 0 0 0
367 1 1 1 -0.498514 0.153512 0 0 0 0
368 1 1 1 -0.488535 0.15289 0 0 0 0
369 1 1 1 -0.487105 0.162784 0 0 0 0
370 1 1 1 -0.489206 0.172558 0 0 0 0
371 1 1 1 -0.485663 0.181906 0 0 0 0
372 1 1 1 -0.4778 0.18808 0 0 0 0
373 1 1 1 -0.469936 0.194255 0 0 0 0
374 1 1 1 -0.462071 0.200429 0 0 0 0
375 1 1 1 -0.454206 0.206603 0 0 0 0
376 1 1 1 -0.446341 0.212776 0 0 0 0
377 1 1 1 -0.438476 0.21895 0 0 0 0
378 1 1 1 -0.43061 0.225124 0 0 0 0
379 1 1 1 -0.429346 0.253045 0 0 0 0
380 1 1 1 -0.424903 0.262002 0 0 0 0
381 1 1 1 -0.413344 0.283088 0 0 0 0
382 1 1 1 -0.408346 0.291749 0 0 0 0
383 1 1 1 -0.403348 0.300409 0 0 0 0
384 1 1 1 -0.398351 0.30907 0 0 0 0
385 1 1 1 -0.393356 0.317732 0 0 0 0
386 1 1 1 -0.384034 0.32135 0 0 0 0
387 1 1 1 -0.425107 0.308379 0 0 0 0
388 1 1 1 -0.385992 0.331156 0 0 0 0
389 1 1 1 -0.388407 0.340859 0 0 0 0
390 1 1 1 -0.392416 0.350019 0 0 0 0
391 1 1 1 -0.404403 0.323374 0 0 0 0
392 1 1 1 -0.403448 0.333353 0 0 0 0
393 1 1 1 -0.398346 0.341968 0 0 0 0
394 1 1 1 -0.40235 0.351151 0 0 0 0
395 1 1 1 -0.358391 0.408739 0 0 0 0
396 1 1 1 -0.382961 0.435435 0 0 0 0
397 1 1 1 -0.373122 0.43365 0 0 0 0
398 1 1 1 -0.369751 0.424236 0 0 0 0
399 1 1 1 -0.357953 0.444723 0 0 0 0
400 1 1 1 -0.35565 0.454454 0 0 0 0
401 1 1 1 -0.452023 -0.430756 0 0 0 0
402 1 1 1 -0.442239 -0.432816 0 0 0 0
403 1 1 1 -0.432251 -0.4323 0 0 0 0
404 1 1 1 -0.422467 -0.434365 0 0 0 0
405 1 1 1 -0.412648 -0.436466 0 0 0 0
406 1 1 1 -0.40841 -0.42741 0 0 0 0
407 1 1 1 -0.385404 -0.390386 0 0 0 0
408 1 1 1 -0.383937 -0.380495 0 0 0 0
409 1 1 1 -0.383159 -0.369199 0 0 0 0
410 1 1 1 -0.388053 -0.360479 0 0 0 0
411 1 1 1 -0.391185 -0.350984 0 0 0 0
412 1 1 1 -0.388256 -0.33453 0 0 0 0
413 1 1 1 -0.390423 -0.32477 0 0 0 0
414 1 1 1 -0.392765 -0.315051 0 0 0 0
415 1 1 1 -0.395189 -0.305352 0 0 0 0
416 1 1 1 -0.397615 -0.295653 0 0 0 0
417 1 1 1 -0.400004 -0.285945 0 0 0 0
418 1 1 1 -0.402537 -0.276275 0 0 0 0
419 1 1 1 -0.407501 -0.267597 0 0 0 0
420 1 1 1 -0.412487 -0.258931 0 0 0 0
421 1 1 1 -0.417472 -0.250265 0 0 0 0
422 1 1 1 -0.422459 -0.241599 0 0 0 0
423 1 1 1 -0.427445 -0.232933 0 0 0 0
424 1 1 1 -0.432432 -0.224266 0 0 0 0
425 1 1 1 -0.437419 -0.2156 0 0 0 0
426 1 1 1 -0.442406 -0.206934 0 0 0 0
427 1 1 1 -0.447394 -0.198268 0 0 0 0
428 1 1 1 -0.45238 -0.189602 0 0 0 0
429 1 1 1 -0.457368 -0.180936 0 0 0 0
430 1 1 1 -0.462356 -0.17227 0 0 0 0
431 1 1 1 -0.467343 -0.163604 0 0 0 0
432 1 1 1 -0.472331 -0.154938 0 0 0 0
433 1 1 1 -0.485164 -0.153778 0 0 0 0
434 1 1 1 -0.490116 -0.145092 0 0 0 0
435 1 1 1 -0.495069 -0.136406 0 0 0 0
436 1 1 1 -0.500022 -0.12772 0 0 0 0
437 1 1 1 -0.504975 -0.119034 0 0 0 0
438 1 1 1 -0.509928 -0.110348 0 0 0 0
439 1 1 1 -0.540553 -0.101912 0 0 0 0
440 1 1 1 -0.542235 -0.0920549 0 0 0 0
441 1 1 1 -0.543917 -0.0821982 0 0 0 0
442 1 1 1 -0.545599 -0.0723416 0 0 0 0
443 1 1 1 -0.547281 -0.0624849 0 0 0 0
444 1 1 1 -0.548963 -0.0526284 0 0 0 0
445 1 1 1 -0.550645 -0.0427719 0 0 0 0
446 1 1 1 -0.552329 -0.0329158 0 0 0 0
447 1 1 1 -0.553966 -0.0230517 0 0 0 0
448 1 1 1 -0.545818 -0.0166444 0 0 0 0
449 1 1 1 -0.536852 -0.0018264 0 0 0 0
450 1 1 1 -0.475762 -0.00515451 0 0 0 0
451 1 1 1 -0.536649 0.00817015 0 0 0 0
452 1 1 1 -0.531901 0.0262607 0 0 0 0
453 1 1 1 -0.54072 0.0435667 0 0 0 0
454 1 1 1 -0.547068 0.051291 0 0 0 0
455 1 1 1 -0.544786 0.0610253 0 0 0 0
456 1 1 1 -0.541266 0.0703835 0 0 0 0
457 1 1 1 -0.537747 0.0797424 0 0 0 0
458 1 1 1 -0.534226 0.0891006 0 0 0 0
459 1 1 1 -0.530706 0.0984595 0 0 0 0
460 1 1 1 -0.520841 0.10009 0 0 0 0
461 1 1 1 -0.507639 0.106453 0 0 0 0
462 1 1 1 -0.50214 0.114804 0 0 0 0
463 1 1 1 -0.496347 0.124828 0 0 0 0
464 1 1 1 -0.49082 0.133161 0 0 0 0
465 1 1 1 -0.490827 0.143159 0 0 0 0
466 1 1 1 -0.461536 0.165876 0 0 0 0
467 1 1 1 -0.470477 0.161398 0 0 0 0
468 1 1 1 -0.481152 0.146151 0 0 0 0
469 1 1 1 -0.479249 0.156597 0 0 0 0
470 1 1 1 -0.437952 0.178723 0 0 0 0
471 1 1 1 -0.433515 0.187683 0 0 0 0
472 1 1 1 -0.424217 0.191361 0 0 0 0
473 1 1 1 -0.419776 0.20032 0 0 0 0
474 1 1 1 -0.415334 0.209278 0 0 0 0
475 1 1 1 -0.410893 0.218237 0 0 0 0
476 1 1 1 -0.41643 0.226563 0 0 0 0
477 1 1 1 -0.421969 0.234889 0 0 0 0
478 1 1 1 -0.423809 0.244718 0 0 0 0
479 1 1 1 -0.419366 0.253676 0 0 0 0
480 1 1 1 -0.414924 0.262635 0 0 0 0
481 1 1 1 -0.403344 0.28309 0 0 0 0
482 1 1 1 -0.398347 0.291751 0 0 0 0
483 1 1 1 -0.388348 0.291753 0 0 0 0
484 1 1 1 -0.393349 0.300412 0 0 0 0
485 1 1 1 -0.388353 0.309074 0 0 0 0
486 1 1 1 -0.376235 0.315093 0 0 0 0
487 1 1 1 -0.374716 0.324976 0 0 0 0
488 1 1 1 -0.377702 0.336747 0 0 0 0
489 1 1 1 -0.380117 0.34645 0 0 0 0
490 1 1 1 -0.382531 0.356153 0 0 0 0
491 1 1 1 -0.382037 0.36614 0 0 0 0
492 1 1 1 -0.395313 0.327538 0 0 0 0
493 1 1 1 -0.368818 0.377189 0 0 0 0
494 1 1 1 -0.367711 0.387131 0 0 0 0
495 1 1 1 -0.366616 0.39707 0 0 0 0
496 1 1 1 -0.389426 0.427807 0 0 0 0
497 1 1 1 -0.356234 0.429553 0 0 0 0
498 1 1 1 -0.350676 0.437865 0 0 0 0
499 1 1 1 -0.348375 0.447595 0 0 0 0
500 1 1 1 -0.346071 0.457325 0 0 0 0
501 1 1 1 -0.448916 -0.44026 0 0 0 0
502 1 1 1 -0.439132 -0.44232 0 0 0 0
503 1 1 1 -0.429147 -0.441805 0 0 0 0
504 1 1 1 -0.419365 -0.443872 0 0 0 0
505 1 1 1 -0.363484 -0.401126 0 0 0 0
506 1 1 1 -0.361097 -0.391416 0 0 0 0
507 1 1 1 -0.366908 -0.379279 0 0 0 0
508 1 1 1 -0.371704 -0.370506 0 0 0 0
509 1 1 1 -0.376504 -0.361737 0 0 0 0
510 1 1 1 -0.381394 -0.353018 0 0 0 0
511 1 1 1 -0.383277 -0.3432 0 0 0 0
512 1 1 1 -0.378256 -0.334554 0 0 0 0
513 1 1 1 -0.380424 -0.324793 0 0 0 0
514 1 1 1 -0.382766 -0.315071 0 0 0 0
515 1 1 1 -0.385191 -0.305371 0 0 0 0
516 1 1 1 -0.387615 -0.29567 0 0 0 0
517 1 1 1 -0.390007 -0.285962 0 0 0 0
518 1 1 1 -0.392516 -0.276283 0 0 0 0
519 1 1 1 -0.397502 -0.267615 0 0 0 0
520 1 1 1 -0.402487 -0.258947 0 0 0 0
521 1 1 1 -0.407473 -0.25028 0 0 0 0
522 1 1 1 -0.41246 -0.241613 0 0 0 0
523 1 1 1 -0.417446 -0.232947 0 0 0 0
524 1 1 1 -0.422433 -0.22428 0 0 0 0
525 1 1 1 -0.42742 -0.215614 0 0 0 0
526 1 1 1 -0.432407 -0.206948 0 0 0 0
527 1 1 1 -0.437394 -0.198282 0 0 0 0
528 1 1 1 -0.442381 -0.189615 0 0 0 0
529 1 1 1 -0.447369 -0.180949 0 0 0 0
530 1 1 1 -0.452356 -0.172283 0 0 0 0
531 1 1 1 -0.457344 -0.163617 0 0 0 0
532 1 1 1 -0.462332 -0.154951 0 0 0 0
533 1 1 1 -0.46732 -0.146285 0 0 0 0
534 1 1 1 -0.472308 -0.137619 0 0 0 0
535 1 1 1 -0.48507 -0.136459 0 0 0 0
536 1 1 1 -0.490023 -0.127773 0 0 0 0
537 1 1 1 -0.494976 -0.119087 0 0 0 0
538 1 1 1 -0.499929 -0.110401 0 0 0 0
539 1 1 1 -0.504882 -0.101715 0 0 0 0
540 1 1 1 -0.509836 -0.0930297 0 0 0 0
541 1 1 1 -0.53454 -0.0856699 0 0 0 0
542 1 1 1 -0.536222 -0.0758134 0 0 0 0
543 1 1 1 -0.537904 -0.0659567 0 0 0 0
544 1 1 1 -0.539585 -0.0560999 0 0 0 0
545 1 1 1 -0.53189 -0.0497151 0 0 0 0
546 1 1 1 -0.541267 -0.0462435 0 0 0 0
547 1 1 1 -0.544605 -0.0265685 0 0 0 0
548 1 1 1 -0.534723 -0.0280878 0 0 0 0
549 1 1 1 -0.528075 0.00302733 0 0 0 0
550 1 1 1 -0.484172 0.000253062 0 0 0 0
551 1 1 1 -0.491732 0.0171186 0 0 0 0
552 1 1 1 -0.521906 0.0265116 0 0 0 0
553 1 1 1 -0.532714 0.0544013 0 0 0 0
554 1 1 1 -0.531518 0.064329 0 0 0 0
555 1 1 1 -0.524824 0.0717583 0 0 0 0
556 1 1 1 -0.518125 0.0791821 0 0 0 0
557 1 1 1 -0.527882 0.0813713 0 0 0 0
558 1 1 1 -0.524362 0.0907308 0 0 0 0
559 1 1 1 -0.493332 0.0944928 0 0 0 0
560 1 1 1 -0.497964 0.103355 0 0 0 0
561 1 1 1 -0.492604 0.111796 0 0 0 0
562 1 1 1 -0.487245 0.120238 0 0 0 0
563 1 1 1 -0.481884 0.128678 0 0 0 0
564 1 1 1 -0.476526 0.137119 0 0 0 0
565 1 1 1 -0.471172 0.145561 0 0 0 0
566 1 1 1 -0.461735 0.148859 0 0 0 0
567 1 1 1 -0.456386 0.157305 0 0 0 0
568 1 1 1 -0.451037 0.165752 0 0 0 0
569 1 1 1 -0.432419 0.170395 0 0 0 0
570 1 1 1 -0.427973 0.17935 0 0 0 0
571 1 1 1 -0.41868 0.183037 0 0 0 0
572 1 1 1 -0.414238 0.191994 0 0 0 0
573 1 1 1 -0.409797 0.200953 0 0 0 0
574 1 1 1 -0.405355 0.209911 0 0 0 0
575 1 1 1 -0.400914 0.21887 0 0 0 0
576 1 1 1 -0.406451 0.227196 0 0 0 0
577 1 1 1 -0.411989 0.235522 0 0 0 0
578 1 1 1 -0.41383 0.24535 0 0 0 0
579 1 1 1 -0.409388 0.254309 0 0 0 0
580 1 1 1 -0.404946 0.263267 0 0 0 0
581 1 1 1 -0.393346 0.283092 0 0 0 0
582 1 1 1 -0.383347 0.283095 0 0 0 0
583 1 1 1 -0.37811 0.291614 0 0 0 0
584 1 1 1 -0.37088 0.299028 0 0 0 0
585 1 1 1 -0.368436 0.308835 0 0 0 0
586 1 1 1 -0.366917 0.318719 0 0 0 0
587 1 1 1 -0.365424 0.32867 0 0 0 0
588 1 1 1 -0.367837 0.338375 0 0 0 0
589 1 1 1 -0.370251 0.348078 0 0 0 0
590 1 1 1 -0.372665 0.357782 0 0 0 0
591 1 1 1 -0.372172 0.367769 0 0 0 0
592 1 1 1 -0.362337 0.369576 0 0 0 0
593 1 1 1 -0.358983 0.378996 0 0 0 0
594 1 1 1 -0.357825 0.388927 0 0 0 0
595 1 1 1 -0.356781 0.398871 0 0 0 0
596 1 1 1 -0.351814 0.420584 0 0 0 0
597 1 1 1 -0.346257 0.428896 0 0 0 0
598 1 1 1 -0.340699 0.437209 0 0 0 0
599 1 1 1 -0.338397 0.446939 0 0 0 0
600 1 1 1 -0.336094 0.456669 0 0 0 0
601 1 1 1 -0.342094 -0.478456 0 0 0 0
602 1 1 1 -0.343813 -0.468606 0 0 0 0
603 1 1 1 -0.345537 -0.458756 0 0 0 0
604 1 1 1 -0.347259 -0.448906 0 0 0 0
605 1 1 1 -0.353882 -0.398338 0 0 0 0
606 1 1 1 -0.351494 -0.388628 0 0 0 0
607 1 1 1 -0.356912 -0.379509 0 0 0 0
608 1 1 1 -0.361709 -0.370736 0 0 0 0
609 1 1 1 -0.366508 -0.361962 0 0 0 0
610 1 1 1 -0.371311 -0.353192 0 0 0 0
611 1 1 1 -0.373278 -0.343225 0 0 0 0
612 1 1 1 -0.368257 -0.334575 0 0 0 0
613 1 1 1 -0.370425 -0.324813 0 0 0 0
614 1 1 1 -0.372767 -0.315091 0 0 0 0
615 1 1 1 -0.375192 -0.30539 0 0 0 0
616 1 1 1 -0.377616 -0.295688 0 0 0 0
617 1 1 1 -0.38001 -0.285979 0 0 0 0
618 1 1 1 -0.382516 -0.276299 0 0 0 0
619 1 1 1 -0.387502 -0.267631 0 0 0 0
620 1 1 1 -0.392488 -0.258963 0 0 0 0
621 1 1 1 -0.397474 -0.250296 0 0 0 0
622 1 1 1 -0.402461 -0.241628 0 0 0 0
623 1 1 1 -0.407447 -0.232961 0 0 0 0
624 1 1 1 -0.412434 -0.224295 0 0 0 0
625 1 1 1 -0.417421 -0.215628 0 0 0 0
626 1 1 1 -0.422408 -0.206962 0 0 0 0
627 1 1 1 -0.427395 -0.198296 0 0 0 0
628 1 1 1 -0.432382 -0.189629 0 0 0 0
629 1 1 1 -0.43737 -0.180963 0 0 0 0
630 1 1 1 -0.442357 -0.172297 0 0 0 0
631 1 1 1 -0.447345 -0.163631 0 0 0 0
632 1 1 1 -0.452333 -0.154965 0 0 0 0
633 1 1 1 -0.457321 -0.146299 0 0 0 0
634 1 1 1 -0.462309 -0.137632 0 0 0 0
635 1 1 1 -0.467297 -0.128966 0 0 0 0
636 1 1 1 -0.480024 -0.127827 0 0 0 0
637 1 1 1 -0.484977 -0.11914 0 0 0 0
638 1 1 1 -0.48993 -0.110454 0 0 0 0
639 1 1 1 -0.494883 -0.101768 0 0 0 0
640 1 1 1 -0.499837 -0.0930827 0 0 0 0
641 1 1 1 -0.504791 -0.0843971 0 0 0 0
642 1 1 1 -0.526845 -0.079285 0 0 0 0
643 1 1 1 -0.528527 -0.0694283 0 0 0 0
644 1 1 1 -0.530209 -0.0595719 0 0 0 0
645 1 1 1 -0.520831 -0.0630436 0 0 0 0
646 1 1 1 -0.522431 -0.0464706 0 0 0 0
647 1 1 1 -0.529772 -0.0367753 0 0 0 0
648 1 1 1 -0.524725 -0.0281439 0 0 0 0
649 1 1 1 -0.537057 -0.011824 0 0 0 0
650 1 1 1 -0.502683 0.00720281 0 0 0 0
651 1 1 1 -0.499077 0.0241384 0 0 0 0
652 1 1 1 -0.534196 0.0359919 0 0 0 0
653 1 1 1 -0.522936 0.0523149 0 0 0 0
654 1 1 1 -0.521739 0.0622421 0 0 0 0
655 1 1 1 -0.515046 0.0696694 0 0 0 0
656 1 1 1 -0.505358 0.0721422 0 0 0 0
657 1 1 1 -0.494058 0.0771875 0 0 0 0
658 1 1 1 -0.488701 0.0856304 0 0 0 0
659 1 1 1 -0.483342 0.0940725 0 0 0 0
660 1 1 1 -0.487973 0.102935 0 0 0 0
661 1 1 1 -0.482613 0.111376 0 0 0 0
662 1 1 1 -0.477253 0.119817 0 0 0 0
663 1 1 1 -0.471894 0.128259 0 0 0 0
664 1 1 1 -0.466536 0.136702 0 0 0 0
665 1 1 1 -0.457097 0.140001 0 0 0 0
666 1 1 1 -0.451746 0.148448 0 0 0 0
667 1 1 1 -0.446396 0.156895 0 0 0 0
668 1 1 1 -0.441046 0.165341 0 0 0 0
669 1 1 1 -0.422439 0.171022 0 0 0 0
670 1 1 1 -0.413144 0.174709 0 0 0 0
671 1 1 1 -0.408701 0.183668 0 0 0 0
672 1 1 1 -0.404259 0.192626 0 0 0 0
673 1 1 1 -0.399818 0.201585 0 0 0 0
674 1 1 1 -0.395376 0.210544 0 0 0 0
675 1 1 1 -0.390935 0.219502 0 0 0 0
676 1 1 1 -0.396472 0.227828 0 0 0 0
677 1 1 1 -0.40201 0.236154 0 0 0 0
678 1 1 1 -0.403851 0.245983 0 0 0 0
679 1 1 1 -0.399409 0.254941 0 0 0 0
680 1 1 1 -0.394967 0.2639 0 0 0 0
681 1 1 1 -0.390524 0.272859 0 0 0 0
682 1 1 1 -0.373636 0.28072 0 0 0 0
683 1 1 1 -0.36837 0.289349 0 0 0 0
684 1 1 1 -0.361242 0.296363 0 0 0 0
685 1 1 1 -0.358823 0.306083 0 0 0 0
686 1 1 1 -0.35729 0.31602 0 0 0 0
687 1 1 1 -0.355813 0.32591 0 0 0 0
688 1 1 1 -0.358227 0.335613 0 0 0 0
689 1 1 1 -0.360641 0.345317 0 0 0 0
690 1 1 1 -0.363055 0.355021 0 0 0 0
691 1 1 1 -0.355856 0.361962 0 0 0 0
692 1 1 1 -0.352503 0.371381 0 0 0 0
693 1 1 1 -0.349148 0.3808 0 0 0 0
694 1 1 1 -0.347978 0.39073 0 0 0 0
695 1 1 1 -0.346946 0.400675 0 0 0 0
696 1 1 1 -0.345246 0.410528 0 0 0 0
697 1 1 1 -0.33628 0.428239 0 0 0 0
698 1 1 1 -0.330721 0.43655 0 0 0 0
699 1 1 1 -0.32842 0.446281 0 0 0 0
700 1 1 1 -0.326117 0.456011 0 0 0 0
701 1 1 1 -0.332109 -0.478999 0 0 0 0
702 1 1 1 -0.333829 -0.469149 0 0 0 0
703 1 1 1 -0.335552 -0.459299 0 0 0 0
704 1 1 1 -0.337275 -0.44945 0 0 0 0
705 1 1 1 -0.344301 -0.401199 0 0 0 0
706 1 1 1 -0.341869 -0.3915 0 0 0 0
707 1 1 1 -0.346917 -0.37974 0 0 0 0
708 1 1 1 -0.351713 -0.370966 0 0 0 0
709 1 1 1 -0.356511 -0.362193 0 0 0 0
710 1 1 1 -0.361309 -0.35342 0 0 0 0
711 1 1 1 -0.356108 -0.344878 0 0 0 0
712 1 1 1 -0.358273 -0.335115 0 0 0 0
713 1 1 1 -0.36044 -0.325353 0 0 0 0
714 1 1 1 -0.362782 -0.315631 0 0 0 0
715 1 1 1 -0.365208 -0.30593 0 0 0 0
716 1 1 1 -0.367631 -0.296228 0 0 0 0
717 1 1 1 -0.370027 -0.286519 0 0 0 0
718 1 1 1 -0.372516 -0.276314 0 0 0 0
719 1 1 1 -0.377503 -0.267647 0 0 0 0
720 1 1 1 -0.382489 -0.258979 0 0 0 0
721 1 1 1 -0.387476 -0.250311 0 0 0 0
722 1 1 1 -0.392462 -0.241644 0 0 0 0
723 1 1 1 -0.397448 -0.232977 0 0 0 0
724 1 1 1 -0.402435 -0.22431 0 0 0 0
725 1 1 1 -0.407422 -0.215643 0 0 0 0
726 1 1 1 -0.412409 -0.206976 0 0 0 0
727 1 1 1 -0.417396 -0.19831 0 0 0 0
728 1 1 1 -0.422383 -0.189643 0 0 0 0
729 1 1 1 -0.427371 -0.180977 0 0 0 0
730 1 1 1 -0.432358 -0.172311 0 0 0 0
731 1 1 1 -0.437346 -0.163645 0 0 0 0
732 1 1 1 -0.442334 -0.154978 0 0 0 0
733 1 1 1 -0.447321 -0.146312 0 0 0 0
734 1 1 1 -0.45231 -0.137646 0 0 0 0
735 1 1 1 -0.457297 -0.12898 0 0 0 0
736 1 1 1 -0.462285 -0.120314 0 0 0 0
737 1 1 1 -0.474979 -0.119194 0 0 0 0
738 1 1 1 -0.479931 -0.110508 0 0 0 0
739 1 1 1 -0.484884 -0.101822 0 0 0 0
740 1 1 1 -0.489838 -0.0931356 0 0 0 0
741 1 1 1 -0.494792 -0.08445 0 0 0 0
742 1 1 1 -0.499746 -0.0757643 0 0 0 0
743 1 1 1 -0.504701 -0.0670788 0 0 0 0
744 1 1 1 -0.509656 -0.0583934 0 0 0 0
745 1 1 1 -0.504612 -0.0497593 0 0 0 0
746 1 1 1 -0.512754 -0.0439527 0 0 0 0
747 1 1 1 -0.519773 -0.0368313 0 0 0 0
748 1 1 1 -0.514727 -0.0281988 0 0 0 0
749 1 1 1 -0.529679 -0.0194549 0 0 0 0
750 1 1 1 -0.509372 -0.000229569 0 0 0 0
751 1 1 1 -0.50217 0.0336477 0 0 0 0
752 1 1 1 -0.529631 0.0448888 0 0 0 0
753 1 1 1 -0.503961 0.0541567 0 0 0 0
754 1 1 1 -0.51196 0.0601578 0 0 0 0
755 1 1 1 -0.498728 0.0646573 0 0 0 0
756 1 1 1 -0.489426 0.0683256 0 0 0 0
757 1 1 1 -0.484068 0.0767683 0 0 0 0
758 1 1 1 -0.47871 0.0852106 0 0 0 0
759 1 1 1 -0.473352 0.0936528 0 0 0 0
760 1 1 1 -0.477983 0.102514 0 0 0 0
761 1 1 1 -0.472623 0.110956 0 0 0 0
762 1 1 1 -0.467262 0.119398 0 0 0 0
763 1 1 1 -0.461903 0.12784 0 0 0 0
764 1 1 1 -0.452458 0.131143 0 0 0 0
765 1 1 1 -0.447107 0.13959 0 0 0 0
766 1 1 1 -0.441756 0.148037 0 0 0 0
767 1 1 1 -0.436406 0.156484 0 0 0 0
768 1 1 1 -0.416901 0.162696 0 0 0 0
769 1 1 1 -0.407606 0.166383 0 0 0 0
770 1 1 1 -0.403164 0.175342 0 0 0 0
771 1 1 1 -0.398723 0.1843 0 0 0 0
772 1 1 1 -0.394281 0.193259 0 0 0 0
773 1 1 1 -0.389839 0.202217 0 0 0 0
774 1 1 1 -0.385397 0.211176 0 0 0 0
775 1 1 1 -0.380956 0.220134 0 0 0 0
776 1 1 1 -0.386493 0.228461 0 0 0 0
777 1 1 1 -0.392031 0.236787 0 0 0 0
778 1 1 1 -0.393872 0.246615 0 0 0 0
779 1 1 1 -0.38943 0.255574 0 0 0 0
780 1 1 1 -0.384988 0.264532 0 0 0 0
781 1 1 1 -0.380545 0.273491 0 0 0 0
782 1 1 1 -0.36397 0.278168 0 0 0 0
783 1 1 1 -0.358732 0.286685 0 0 0 0
784 1 1 1 -0.35159 0.293682 0 0 0 0
785 1 1 1 -0.349193 0.303387 0 0 0 0
786 1 1 1 -0.347678 0.313267 0 0 0 0
787 1 1 1 -0.346201 0.323154 0 0 0 0
788 1 1 1 -0.348617 0.332855 0 0 0 0
789 1 1 1 -0.351031 0.342556 0 0 0 0
790 1 1 1 -0.353444 0.352259 0 0 0 0
791 1 1 1 -0.346246 0.3592 0 0 0 0
792 1 1 1 -0.342669 0.373184 0 0 0 0
793 1 1 1 -0.339093 0.382522 0 0 0 0
794 1 1 1 -0.338099 0.392471 0 0 0 0
795 1 1 1 -0.337101 0.40242 0 0 0 0
796 1 1 1 -0.335401 0.412274 0 0 0 0
797 1 1 1 -0.341837 0.419927 0 0 0 0
798 1 1 1 -0.321143 0.439422 0 0 0 0
799 1 1 1 -0.318841 0.449152 0 0 0 0